LAMMPS (29 Aug 2024 - Development - stable_17Nov2016-29138-g80832ce763)
KOKKOS mode with Kokkos version 4.4.1 is enabled (../kokkos.cpp:72)
  will use up to 1 GPU(s) per node
package kokkos
package kokkos neigh full neigh/qeq full newton off comm device pair/only off
# 3d Lennard-Jones melt

units		lj
atom_style	atomic

lattice		fcc 0.8442
Lattice spacing in x,y,z = 1.6795962 1.6795962 1.6795962
region		box block 0 $x 0 $y 0 $z
region		box block 0 160 0 $y 0 $z
region		box block 0 160 0 160 0 $z
region		box block 0 160 0 160 0 160
create_box	1 box
Created orthogonal box = (0 0 0) to (268.73539 268.73539 268.73539)
  1 by 1 by 1 MPI processor grid
create_atoms	1 box
Created 16384000 atoms
  using lattice units in orthogonal box = (0 0 0) to (268.73539 268.73539 268.73539)
  create_atoms CPU = 1.484 seconds
mass		1 1.0

velocity	all create 1.44 87287 loop geom

pair_style	lj/cut 2.5
pair_coeff	1 1 1.0 1.0 2.5

neighbor	0.3 bin
neigh_modify	delay 0 every 20 check no

fix		1 all nve
thermo          10000

run		$t
run		1000
Generated 0 of 0 mixed pair_coeff terms from geometric mixing rule
Neighbor list info ...
  update: every = 20 steps, delay = 0 steps, check = no
  max neighbors/atom: 2000, page size: 100000
  master list distance cutoff = 2.8
  ghost atom cutoff = 2.8
  binsize = 2.8, bins = 96 96 96
  1 neighbor lists, perpetual/occasional/extra = 1 0 0
  (1) pair lj/cut/kk, perpetual
      attributes: full, newton off, kokkos_device
      pair build: full/bin/kk/device
      stencil: full/bin/3d
      bin: kk/device
Per MPI rank memory allocation (min/avg/max) = 2162 | 2162 | 2162 Mbytes
   Step          Temp          E_pair         E_mol          TotEng         Press     
         0   1.44          -6.7733681      0             -4.6133682     -5.0196693    
      1000   0.70395269    -5.676399       0             -4.62047        0.70361405   
Loop time of 61.304 on 1 procs for 1000 steps with 16384000 atoms

Performance: 7046.854 tau/day, 16.312 timesteps/s, 267.258 Matom-step/s
80.4% CPU use with 1 MPI tasks x 1 OpenMP threads

MPI task timing breakdown:
Section |  min time  |  avg time  |  max time  |%varavg| %total
---------------------------------------------------------------
Pair    | 3.0788     | 3.0788     | 3.0788     |   0.0 |  5.02
Neigh   | 13.921     | 13.921     | 13.921     |   0.0 | 22.71
Comm    | 0.86761    | 0.86761    | 0.86761    |   0.0 |  1.42
Output  | 0.00075925 | 0.00075925 | 0.00075925 |   0.0 |  0.00
Modify  | 43.371     | 43.371     | 43.371     |   0.0 | 70.75
Other   |            | 0.0644     |            |       |  0.11

Nlocal:     1.6384e+07 ave  1.6384e+07 max  1.6384e+07 min
Histogram: 1 0 0 0 0 0 0 0 0 0
Nghost:    1.05132e+06 ave 1.05132e+06 max 1.05132e+06 min
Histogram: 1 0 0 0 0 0 0 0 0 0
Neighs:              0 ave           0 max           0 min
Histogram: 1 0 0 0 0 0 0 0 0 0
FullNghs:  1.22832e+09 ave 1.22832e+09 max 1.22832e+09 min
Histogram: 1 0 0 0 0 0 0 0 0 0

Total # of neighbors = 1.2283158e+09
Ave neighs/atom = 74.970446
Neighbor list builds = 50
Dangerous builds not checked
Total wall time: 0:01:13
