LAMMPS (4 Feb 2025 - Development)
KOKKOS mode with Kokkos version 4.5.1 is enabled (../kokkos.cpp:72)
  will use up to 1 GPU(s) per node
package kokkos
package kokkos neigh half neigh/qeq full newton on comm device pair/only off
# 3d Lennard-Jones melt

units		lj
atom_style	atomic

lattice		fcc 0.8442
Lattice spacing in x,y,z = 1.6795962 1.6795962 1.6795962
region		box block 0 $x 0 $y 0 $z
region		box block 0 20 0 $y 0 $z
region		box block 0 20 0 20 0 $z
region		box block 0 20 0 20 0 20
create_box	1 box
Created orthogonal box = (0 0 0) to (33.591924 33.591924 33.591924)
  1 by 1 by 1 MPI processor grid
create_atoms	1 box
Created 32000 atoms
  using lattice units in orthogonal box = (0 0 0) to (33.591924 33.591924 33.591924)
  create_atoms CPU = 0.004 seconds
mass		1 1.0

velocity	all create 1.44 87287 loop geom

pair_style	lj/cut 2.5
pair_coeff	1 1 1.0 1.0 2.5

neighbor	0.3 bin
neigh_modify	delay 0 every 20 check no

fix		1 all nve
thermo          10000

run		$t
run		1000
Generated 0 of 0 mixed pair_coeff terms from geometric mixing rule
Neighbor list info ...
  update: every = 20 steps, delay = 0 steps, check = no
  max neighbors/atom: 2000, page size: 100000
  master list distance cutoff = 2.8
  ghost atom cutoff = 2.8
  binsize = 2.8, bins = 12 12 12
  1 neighbor lists, perpetual/occasional/extra = 1 0 0
  (1) pair lj/cut/kk, perpetual
      attributes: half, newton on, kokkos_device
      pair build: half/bin/newton/kk/device
      stencil: half/bin/3d
      bin: kk/device
Per MPI rank memory allocation (min/avg/max) = 7.225 | 7.225 | 7.225 Mbytes
   Step          Temp          E_pair         E_mol          TotEng         Press     
         0   1.44          -6.7733681      0             -4.6134356     -5.0197073    
      1000   0.70325875    -5.6750827      0             -4.6202276      0.71125856   
Loop time of 0.161977 on 1 procs for 1000 steps with 32000 atoms

Performance: 2667046.820 tau/day, 6173.719 timesteps/s, 197.559 Matom-step/s
99.8% CPU use with 1 MPI tasks x 1 OpenMP threads

MPI task timing breakdown:
Section |  min time  |  avg time  |  max time  |%varavg| %total
---------------------------------------------------------------
Pair    | 0.023938   | 0.023938   | 0.023938   |   0.0 | 14.78
Neigh   | 0.0095179  | 0.0095179  | 0.0095179  |   0.0 |  5.88
Comm    | 0.11734    | 0.11734    | 0.11734    |   0.0 | 72.44
Output  | 4.6793e-05 | 4.6793e-05 | 4.6793e-05 |   0.0 |  0.03
Modify  | 0.0081452  | 0.0081452  | 0.0081452  |   0.0 |  5.03
Other   |            | 0.002989   |            |       |  1.85

Nlocal:          32000 ave       32000 max       32000 min
Histogram: 1 0 0 0 0 0 0 0 0 0
Nghost:          18867 ave       18867 max       18867 min
Histogram: 1 0 0 0 0 0 0 0 0 0
Neighs:    1.19974e+06 ave 1.19974e+06 max 1.19974e+06 min
Histogram: 1 0 0 0 0 0 0 0 0 0

Total # of neighbors = 1199738
Ave neighs/atom = 37.491813
Neighbor list builds = 50
Dangerous builds not checked
Total wall time: 0:00:00
