LAMMPS (4 Feb 2025 - Development)
KOKKOS mode with Kokkos version 4.5.1 is enabled (../kokkos.cpp:72)
  will use up to 1 GPU(s) per node
package kokkos
package kokkos neigh half neigh/qeq full newton on comm device pair/only off
# Pure HNS crystal, ReaxFF tests for benchmarking LAMMPS
# See README for more info

units		real
atom_style	charge
atom_modify sort  100 0.0
dimension       3
boundary        p p p
box               tilt large

The 'box' command has been removed and will be ignored


read_data  	data.hns
Reading data file ...
  triclinic box = (0 0 0) to (22.326 11.1412 13.778966) with tilt (0 -5.02603 0)
  1 by 1 by 1 MPI processor grid
  reading atoms ...
  304 atoms
  reading velocities ...
  304 velocities
  read_data CPU = 0.009 seconds
replicate         $x $y $z bbox
replicate         16 $y $z bbox
replicate         16 16 $z bbox
replicate         16 16 12 bbox
Replication is creating a 16x16x12 = 3072 times larger system...
  triclinic box = (0 0 0) to (357.216 178.2592 165.34759) with tilt (0 -60.31236 0)
  1 by 1 by 1 MPI processor grid
  bounding box image = (0 -1 -1) to (0 1 1)
  bounding box extra memory = 0.03 MB
  average # of replicas added to proc = 3072.00 out of 3072 (100.00%)
  933888 atoms
  replicate CPU = 0.064 seconds

pair_style        reaxff NULL
pair_coeff	* * ffield.reax.hns C H O N

compute   	reax all pair reaxff

neighbor	1.0 bin
neigh_modify      every 20 delay 0 check no

timestep        0.1

thermo_style      custom step temp pe press evdwl ecoul vol
thermo_modify	norm yes
thermo	  	100

velocity          all create 300.0 41279 loop geom

fix		1 all nve
fix             2 all qeq/reaxff 1 0.0 10.0 1e-6 reaxff

run  		$t
run  		200
Neighbor list info ...
  update: every = 20 steps, delay = 0 steps, check = no
  max neighbors/atom: 2000, page size: 100000
  master list distance cutoff = 11
  ghost atom cutoff = 11
  binsize = 11, bins = 38 17 16
  2 neighbor lists, perpetual/occasional/extra = 2 0 0
  (1) pair reaxff/kk, perpetual
      attributes: half, newton off, ghost, kokkos_device
      pair build: half/bin/newtoff/ghost/kk/device
      stencil: full/ghost/bin/3d
      bin: kk/device
  (2) fix qeq/reaxff/kk, perpetual
      attributes: full, newton off, kokkos_device
      pair build: full/bin/kk/device
      stencil: full/bin/3d
      bin: kk/device
Per MPI rank memory allocation (min/avg/max) = 1e+04 | 1e+04 | 1e+04 Mbytes
   Step          Temp          PotEng         Press          E_vdwl         E_coul         Volume    
         0   300           -113.27833      439.01641     -111.57687     -1.7014647      10528845     
       100   302.63456     -113.28547      10175.484     -111.58676     -1.6987092      10528845     
       200   294.03061     -113.25969      9628.3024     -111.56068     -1.6990135      10528845     
Loop time of 17.3582 on 1 procs for 200 steps with 933888 atoms

Performance: 0.100 ns/day, 241.086 hours/ns, 11.522 timesteps/s, 10.760 Matom-step/s
98.3% CPU use with 1 MPI tasks x 1 OpenMP threads

MPI task timing breakdown:
Section |  min time  |  avg time  |  max time  |%varavg| %total
---------------------------------------------------------------
Pair    | 7.9606     | 7.9606     | 7.9606     |   0.0 | 45.86
Neigh   | 0.31665    | 0.31665    | 0.31665    |   0.0 |  1.82
Comm    | 0.66703    | 0.66703    | 0.66703    |   0.0 |  3.84
Output  | 0.001034   | 0.001034   | 0.001034   |   0.0 |  0.01
Modify  | 8.3591     | 8.3591     | 8.3591     |   0.0 | 48.16
Other   |            | 0.05386    |            |       |  0.31

Nlocal:         933888 ave      933888 max      933888 min
Histogram: 1 0 0 0 0 0 0 0 0 0
Nghost:         330228 ave      330228 max      330228 min
Histogram: 1 0 0 0 0 0 0 0 0 0
Neighs:    2.42949e+08 ave 2.42949e+08 max 2.42949e+08 min
Histogram: 1 0 0 0 0 0 0 0 0 0
FullNghs:  4.58509e+08 ave 4.58509e+08 max 4.58509e+08 min
Histogram: 1 0 0 0 0 0 0 0 0 0

Total # of neighbors = 4.5850901e+08
Ave neighs/atom = 490.96788
Neighbor list builds = 10
Dangerous builds not checked
Total wall time: 0:00:18
