LAMMPS (4 Feb 2025 - Development)
KOKKOS mode with Kokkos version 4.5.1 is enabled (../kokkos.cpp:72)
  will use up to 1 GPU(s) per node
package kokkos
package kokkos neigh half neigh/qeq full newton on comm device pair/only off
# 3d Lennard-Jones melt

units		lj
atom_style	atomic

lattice		fcc 0.8442
Lattice spacing in x,y,z = 1.6795962 1.6795962 1.6795962
region		box block 0 $x 0 $y 0 $z
region		box block 0 80 0 $y 0 $z
region		box block 0 80 0 160 0 $z
region		box block 0 80 0 160 0 160
create_box	1 box
Created orthogonal box = (0 0 0) to (134.3677 268.73539 268.73539)
  1 by 1 by 1 MPI processor grid
create_atoms	1 box
Created 8192000 atoms
  using lattice units in orthogonal box = (0 0 0) to (134.3677 268.73539 268.73539)
  create_atoms CPU = 0.556 seconds
mass		1 1.0

velocity	all create 1.44 87287 loop geom

pair_style	lj/cut 2.5
pair_coeff	1 1 1.0 1.0 2.5

neighbor	0.3 bin
neigh_modify	delay 0 every 20 check no

fix		1 all nve
thermo          10000

run		$t
run		1000
Generated 0 of 0 mixed pair_coeff terms from geometric mixing rule
Neighbor list info ...
  update: every = 20 steps, delay = 0 steps, check = no
  max neighbors/atom: 2000, page size: 100000
  master list distance cutoff = 2.8
  ghost atom cutoff = 2.8
  binsize = 2.8, bins = 48 96 96
  1 neighbor lists, perpetual/occasional/extra = 1 0 0
  (1) pair lj/cut/kk, perpetual
      attributes: half, newton on, kokkos_device
      pair build: half/bin/newton/kk/device
      stencil: half/bin/3d
      bin: kk/device
Per MPI rank memory allocation (min/avg/max) = 1118 | 1118 | 1118 Mbytes
   Step          Temp          E_pair         E_mol          TotEng         Press     
         0   1.44          -6.7733681      0             -4.6133683     -5.0196694    
      1000   0.70390767    -5.6763221      0             -4.6204607      0.70371433   
Loop time of 10.4448 on 1 procs for 1000 steps with 8192000 atoms

Performance: 41360.346 tau/day, 95.742 timesteps/s, 784.315 Matom-step/s
98.7% CPU use with 1 MPI tasks x 1 OpenMP threads

MPI task timing breakdown:
Section |  min time  |  avg time  |  max time  |%varavg| %total
---------------------------------------------------------------
Pair    | 0.49673    | 0.49673    | 0.49673    |   0.0 |  4.76
Neigh   | 0.57378    | 0.57378    | 0.57378    |   0.0 |  5.49
Comm    | 9.2029     | 9.2029     | 9.2029     |   0.0 | 88.11
Output  | 0.00024593 | 0.00024593 | 0.00024593 |   0.0 |  0.00
Modify  | 0.0085355  | 0.0085355  | 0.0085355  |   0.0 |  0.08
Other   |            | 0.1626     |            |       |  1.56

Nlocal:      8.192e+06 ave   8.192e+06 max   8.192e+06 min
Histogram: 1 0 0 0 0 0 0 0 0 0
Nghost:         704070 ave      704070 max      704070 min
Histogram: 1 0 0 0 0 0 0 0 0 0
Neighs:     3.0709e+08 ave  3.0709e+08 max  3.0709e+08 min
Histogram: 1 0 0 0 0 0 0 0 0 0

Total # of neighbors = 3.0709035e+08
Ave neighs/atom = 37.486615
Neighbor list builds = 50
Dangerous builds not checked
Total wall time: 0:00:16
