LAMMPS (4 Feb 2025 - Development)
KOKKOS mode with Kokkos version 4.5.1 is enabled (../kokkos.cpp:72)
  will use up to 1 GPU(s) per node
package kokkos
package kokkos neigh half neigh/qeq full newton on comm device pair/only off
# Pure HNS crystal, ReaxFF tests for benchmarking LAMMPS
# See README for more info

units		real
atom_style	charge
atom_modify sort  100 0.0
dimension       3
boundary        p p p
box               tilt large

The 'box' command has been removed and will be ignored


read_data  	data.hns
Reading data file ...
  triclinic box = (0 0 0) to (22.326 11.1412 13.778966) with tilt (0 -5.02603 0)
  1 by 1 by 1 MPI processor grid
  reading atoms ...
  304 atoms
  reading velocities ...
  304 velocities
  read_data CPU = 0.009 seconds
replicate         $x $y $z bbox
replicate         8 $y $z bbox
replicate         8 8 $z bbox
replicate         8 8 6 bbox
Replication is creating a 8x8x6 = 384 times larger system...
  triclinic box = (0 0 0) to (178.608 89.1296 82.673796) with tilt (0 -30.15618 0)
  1 by 1 by 1 MPI processor grid
  bounding box image = (0 -1 -1) to (0 1 1)
  bounding box extra memory = 0.03 MB
  average # of replicas added to proc = 384.00 out of 384 (100.00%)
  116736 atoms
  replicate CPU = 0.011 seconds

pair_style        reaxff NULL
pair_coeff	* * ffield.reax.hns C H O N

compute   	reax all pair reaxff

neighbor	1.0 bin
neigh_modify      every 20 delay 0 check no

timestep        0.1

thermo_style      custom step temp pe press evdwl ecoul vol
thermo_modify	norm yes
thermo	  	100

velocity          all create 300.0 41279 loop geom

fix		1 all nve
fix             2 all qeq/reaxff 1 0.0 10.0 1e-6 reaxff

run  		$t
run  		200
Neighbor list info ...
  update: every = 20 steps, delay = 0 steps, check = no
  max neighbors/atom: 2000, page size: 100000
  master list distance cutoff = 11
  ghost atom cutoff = 11
  binsize = 11, bins = 19 9 8
  2 neighbor lists, perpetual/occasional/extra = 2 0 0
  (1) pair reaxff/kk, perpetual
      attributes: half, newton off, ghost, kokkos_device
      pair build: half/bin/newtoff/ghost/kk/device
      stencil: full/ghost/bin/3d
      bin: kk/device
  (2) fix qeq/reaxff/kk, perpetual
      attributes: full, newton off, kokkos_device
      pair build: full/bin/kk/device
      stencil: full/bin/3d
      bin: kk/device
Per MPI rank memory allocation (min/avg/max) = 1439 | 1439 | 1439 Mbytes
   Step          Temp          PotEng         Press          E_vdwl         E_coul         Volume    
         0   300           -113.27833      438.98719     -111.57687     -1.7014647      1316105.6    
       100   302.83476     -113.28605      9866.9063     -111.5872      -1.6988449      1316105.6    
       200   294.20141     -113.26023      9456.7176     -111.56118     -1.6990476      1316105.6    
Loop time of 3.45917 on 1 procs for 200 steps with 116736 atoms

Performance: 0.500 ns/day, 48.044 hours/ns, 57.817 timesteps/s, 6.749 Matom-step/s
98.6% CPU use with 1 MPI tasks x 1 OpenMP threads

MPI task timing breakdown:
Section |  min time  |  avg time  |  max time  |%varavg| %total
---------------------------------------------------------------
Pair    | 1.4594     | 1.4594     | 1.4594     |   0.0 | 42.19
Neigh   | 0.061899   | 0.061899   | 0.061899   |   0.0 |  1.79
Comm    | 0.11548    | 0.11548    | 0.11548    |   0.0 |  3.34
Output  | 0.00033961 | 0.00033961 | 0.00033961 |   0.0 |  0.01
Modify  | 1.8117     | 1.8117     | 1.8117     |   0.0 | 52.37
Other   |            | 0.01038    |            |       |  0.30

Nlocal:         116736 ave      116736 max      116736 min
Histogram: 1 0 0 0 0 0 0 0 0 0
Nghost:          90911 ave       90911 max       90911 min
Histogram: 1 0 0 0 0 0 0 0 0 0
Neighs:    3.20173e+07 ave 3.20173e+07 max 3.20173e+07 min
Histogram: 1 0 0 0 0 0 0 0 0 0
FullNghs:  5.73146e+07 ave 5.73146e+07 max 5.73146e+07 min
Histogram: 1 0 0 0 0 0 0 0 0 0

Total # of neighbors = 57314618
Ave neighs/atom = 490.97637
Neighbor list builds = 10
Dangerous builds not checked
Total wall time: 0:00:03
