LAMMPS (4 Feb 2025 - Development)
KOKKOS mode with Kokkos version 4.5.1 is enabled (../kokkos.cpp:72)
  will use up to 1 GPU(s) per node
package kokkos
package kokkos neigh half neigh/qeq full newton on comm device pair/only off
# Pure HNS crystal, ReaxFF tests for benchmarking LAMMPS
# See README for more info

units		real
atom_style	charge
atom_modify sort  100 0.0
dimension       3
boundary        p p p
box               tilt large

The 'box' command has been removed and will be ignored


read_data  	data.hns
Reading data file ...
  triclinic box = (0 0 0) to (22.326 11.1412 13.778966) with tilt (0 -5.02603 0)
  1 by 1 by 1 MPI processor grid
  reading atoms ...
  304 atoms
  reading velocities ...
  304 velocities
  read_data CPU = 0.009 seconds
replicate         $x $y $z bbox
replicate         16 $y $z bbox
replicate         16 32 $z bbox
replicate         16 32 24 bbox
Replication is creating a 16x32x24 = 12288 times larger system...
  triclinic box = (0 0 0) to (357.216 356.5184 330.69518) with tilt (0 -120.62472 0)
  1 by 1 by 1 MPI processor grid
  bounding box image = (0 -1 -1) to (0 1 1)
  bounding box extra memory = 0.03 MB
  average # of replicas added to proc = 12288.00 out of 12288 (100.00%)
  3735552 atoms
  replicate CPU = 0.244 seconds

pair_style        reaxff NULL
pair_coeff	* * ffield.reax.hns C H O N

compute   	reax all pair reaxff

neighbor	1.0 bin
neigh_modify      every 20 delay 0 check no

timestep        0.1

thermo_style      custom step temp pe press evdwl ecoul vol
thermo_modify	norm yes
thermo	  	100

velocity          all create 300.0 41279 loop geom

fix		1 all nve
fix             2 all qeq/reaxff 1 0.0 10.0 1e-6 reaxff

run  		$t
run  		200
Neighbor list info ...
  update: every = 20 steps, delay = 0 steps, check = no
  max neighbors/atom: 2000, page size: 100000
  master list distance cutoff = 11
  ghost atom cutoff = 11
  binsize = 11, bins = 44 33 31
  2 neighbor lists, perpetual/occasional/extra = 2 0 0
  (1) pair reaxff/kk, perpetual
      attributes: half, newton off, ghost, kokkos_device
      pair build: half/bin/newtoff/ghost/kk/device
      stencil: full/ghost/bin/3d
      bin: kk/device
  (2) fix qeq/reaxff/kk, perpetual
      attributes: full, newton off, kokkos_device
      pair build: full/bin/kk/device
      stencil: full/bin/3d
      bin: kk/device
Per MPI rank memory allocation (min/avg/max) = 3.79e+04 | 3.79e+04 | 3.79e+04 Mbytes
   Step          Temp          PotEng         Press          E_vdwl         E_coul         Volume    
         0   300           -113.27833      439.01941     -111.57687     -1.7014647      42115380     
       100   302.56991     -113.28527      10439.389     -111.58658     -1.6986924      42115380     
       200   293.88597     -113.25926      9754.115      -111.56021     -1.6990469      42115380     
Loop time of 65.653 on 1 procs for 200 steps with 3735552 atoms

Performance: 0.026 ns/day, 911.847 hours/ns, 3.046 timesteps/s, 11.380 Matom-step/s
96.4% CPU use with 1 MPI tasks x 1 OpenMP threads

MPI task timing breakdown:
Section |  min time  |  avg time  |  max time  |%varavg| %total
---------------------------------------------------------------
Pair    | 29.521     | 29.521     | 29.521     |   0.0 | 44.97
Neigh   | 1.0957     | 1.0957     | 1.0957     |   0.0 |  1.67
Comm    | 2.7308     | 2.7308     | 2.7308     |   0.0 |  4.16
Output  | 0.0042875  | 0.0042875  | 0.0042875  |   0.0 |  0.01
Modify  | 32.122     | 32.122     | 32.122     |   0.0 | 48.93
Other   |            | 0.1795     |            |       |  0.27

Nlocal:    3.73555e+06 ave 3.73555e+06 max 3.73555e+06 min
Histogram: 1 0 0 0 0 0 0 0 0 0
Nghost:         766264 ave      766264 max      766264 min
Histogram: 1 0 0 0 0 0 0 0 0 0
Neighs:    9.50246e+08 ave 9.50246e+08 max 9.50246e+08 min
Histogram: 1 0 0 0 0 0 0 0 0 0
FullNghs:  1.83405e+09 ave 1.83405e+09 max 1.83405e+09 min
Histogram: 1 0 0 0 0 0 0 0 0 0

Total # of neighbors = 1.8340493e+09
Ave neighs/atom = 490.97143
Neighbor list builds = 10
Dangerous builds not checked
Total wall time: 0:01:10
