LAMMPS (4 Feb 2025 - Development)
KOKKOS mode with Kokkos version 4.5.1 is enabled (../kokkos.cpp:72)
  will use up to 1 GPU(s) per node
package kokkos
package kokkos neigh half neigh/qeq full newton on comm device pair/only off
# Pure HNS crystal, ReaxFF tests for benchmarking LAMMPS
# See README for more info

units		real
atom_style	charge
atom_modify sort  100 0.0
dimension       3
boundary        p p p
box               tilt large

The 'box' command has been removed and will be ignored


read_data  	data.hns
Reading data file ...
  triclinic box = (0 0 0) to (22.326 11.1412 13.778966) with tilt (0 -5.02603 0)
  1 by 1 by 1 MPI processor grid
  reading atoms ...
  304 atoms
  reading velocities ...
  304 velocities
  read_data CPU = 0.009 seconds
replicate         $x $y $z bbox
replicate         4 $y $z bbox
replicate         4 8 $z bbox
replicate         4 8 6 bbox
Replication is creating a 4x8x6 = 192 times larger system...
  triclinic box = (0 0 0) to (89.304 89.1296 82.673796) with tilt (0 -30.15618 0)
  1 by 1 by 1 MPI processor grid
  bounding box image = (0 -1 -1) to (0 1 1)
  bounding box extra memory = 0.03 MB
  average # of replicas added to proc = 192.00 out of 192 (100.00%)
  58368 atoms
  replicate CPU = 0.007 seconds

pair_style        reaxff NULL
pair_coeff	* * ffield.reax.hns C H O N

compute   	reax all pair reaxff

neighbor	1.0 bin
neigh_modify      every 20 delay 0 check no

timestep        0.1

thermo_style      custom step temp pe press evdwl ecoul vol
thermo_modify	norm yes
thermo	  	100

velocity          all create 300.0 41279 loop geom

fix		1 all nve
fix             2 all qeq/reaxff 1 0.0 10.0 1e-6 reaxff

run  		$t
run  		200
Neighbor list info ...
  update: every = 20 steps, delay = 0 steps, check = no
  max neighbors/atom: 2000, page size: 100000
  master list distance cutoff = 11
  ghost atom cutoff = 11
  binsize = 11, bins = 11 9 8
  2 neighbor lists, perpetual/occasional/extra = 2 0 0
  (1) pair reaxff/kk, perpetual
      attributes: half, newton off, ghost, kokkos_device
      pair build: half/bin/newtoff/ghost/kk/device
      stencil: full/ghost/bin/3d
      bin: kk/device
  (2) fix qeq/reaxff/kk, perpetual
      attributes: full, newton off, kokkos_device
      pair build: full/bin/kk/device
      stencil: full/bin/3d
      bin: kk/device
Per MPI rank memory allocation (min/avg/max) = 765.4 | 765.4 | 765.4 Mbytes
   Step          Temp          PotEng         Press          E_vdwl         E_coul         Volume    
         0   300           -113.27833      438.96057     -111.57687     -1.7014647      658052.81    
       100   303.42243     -113.28781      9930.0792     -111.58909     -1.6987231      658052.81    
       200   294.03018     -113.25968      8693.266      -111.56089     -1.6987969      658052.81    
Loop time of 2.36082 on 1 procs for 200 steps with 58368 atoms

Performance: 0.732 ns/day, 32.789 hours/ns, 84.716 timesteps/s, 4.945 Matom-step/s
98.9% CPU use with 1 MPI tasks x 1 OpenMP threads

MPI task timing breakdown:
Section |  min time  |  avg time  |  max time  |%varavg| %total
---------------------------------------------------------------
Pair    | 0.91208    | 0.91208    | 0.91208    |   0.0 | 38.63
Neigh   | 0.036873   | 0.036873   | 0.036873   |   0.0 |  1.56
Comm    | 0.061456   | 0.061456   | 0.061456   |   0.0 |  2.60
Output  | 0.0001369  | 0.0001369  | 0.0001369  |   0.0 |  0.01
Modify  | 1.344      | 1.344      | 1.344      |   0.0 | 56.93
Other   |            | 0.006297   |            |       |  0.27

Nlocal:          58368 ave       58368 max       58368 min
Histogram: 1 0 0 0 0 0 0 0 0 0
Nghost:          57410 ave       57410 max       57410 min
Histogram: 1 0 0 0 0 0 0 0 0 0
Neighs:    1.63347e+07 ave 1.63347e+07 max 1.63347e+07 min
Histogram: 1 0 0 0 0 0 0 0 0 0
FullNghs:  2.86585e+07 ave 2.86585e+07 max 2.86585e+07 min
Histogram: 1 0 0 0 0 0 0 0 0 0

Total # of neighbors = 28658476
Ave neighs/atom = 490.99637
Neighbor list builds = 10
Dangerous builds not checked
Total wall time: 0:00:02
