LAMMPS (4 Feb 2025 - Development)
KOKKOS mode with Kokkos version 4.5.1 is enabled (../kokkos.cpp:72)
  will use up to 1 GPU(s) per node
package kokkos
package kokkos neigh half neigh/qeq full newton on comm device pair/only off
# Pure HNS crystal, ReaxFF tests for benchmarking LAMMPS
# See README for more info

units		real
atom_style	charge
atom_modify sort  100 0.0
dimension       3
boundary        p p p
box               tilt large

The 'box' command has been removed and will be ignored


read_data  	data.hns
Reading data file ...
  triclinic box = (0 0 0) to (22.326 11.1412 13.778966) with tilt (0 -5.02603 0)
  1 by 1 by 1 MPI processor grid
  reading atoms ...
  304 atoms
  reading velocities ...
  304 velocities
  read_data CPU = 0.009 seconds
replicate         $x $y $z bbox
replicate         8 $y $z bbox
replicate         8 8 $z bbox
replicate         8 8 12 bbox
Replication is creating a 8x8x12 = 768 times larger system...
  triclinic box = (0 0 0) to (178.608 89.1296 165.34759) with tilt (0 -60.31236 0)
  1 by 1 by 1 MPI processor grid
  bounding box image = (0 -1 -1) to (0 1 1)
  bounding box extra memory = 0.03 MB
  average # of replicas added to proc = 768.00 out of 768 (100.00%)
  233472 atoms
  replicate CPU = 0.019 seconds

pair_style        reaxff NULL
pair_coeff	* * ffield.reax.hns C H O N

compute   	reax all pair reaxff

neighbor	1.0 bin
neigh_modify      every 20 delay 0 check no

timestep        0.1

thermo_style      custom step temp pe press evdwl ecoul vol
thermo_modify	norm yes
thermo	  	100

velocity          all create 300.0 41279 loop geom

fix		1 all nve
fix             2 all qeq/reaxff 1 0.0 10.0 1e-6 reaxff

run  		$t
run  		200
Neighbor list info ...
  update: every = 20 steps, delay = 0 steps, check = no
  max neighbors/atom: 2000, page size: 100000
  master list distance cutoff = 11
  ghost atom cutoff = 11
  binsize = 11, bins = 22 9 16
  2 neighbor lists, perpetual/occasional/extra = 2 0 0
  (1) pair reaxff/kk, perpetual
      attributes: half, newton off, ghost, kokkos_device
      pair build: half/bin/newtoff/ghost/kk/device
      stencil: full/ghost/bin/3d
      bin: kk/device
  (2) fix qeq/reaxff/kk, perpetual
      attributes: full, newton off, kokkos_device
      pair build: full/bin/kk/device
      stencil: full/bin/3d
      bin: kk/device
Per MPI rank memory allocation (min/avg/max) = 2714 | 2714 | 2714 Mbytes
   Step          Temp          PotEng         Press          E_vdwl         E_coul         Volume    
         0   300           -113.27833      439.00286     -111.57687     -1.7014647      2632211.2    
       100   302.82055     -113.286        9946.829      -111.58711     -1.6988953      2632211.2    
       200   294.03263     -113.25971      9579.8101     -111.56053     -1.699182       2632211.2    
Loop time of 5.49557 on 1 procs for 200 steps with 233472 atoms

Performance: 0.314 ns/day, 76.327 hours/ns, 36.393 timesteps/s, 8.497 Matom-step/s
98.7% CPU use with 1 MPI tasks x 1 OpenMP threads

MPI task timing breakdown:
Section |  min time  |  avg time  |  max time  |%varavg| %total
---------------------------------------------------------------
Pair    | 2.4634     | 2.4634     | 2.4634     |   0.0 | 44.83
Neigh   | 0.096162   | 0.096162   | 0.096162   |   0.0 |  1.75
Comm    | 0.18169    | 0.18169    | 0.18169    |   0.0 |  3.31
Output  | 0.0005026  | 0.0005026  | 0.0005026  |   0.0 |  0.01
Modify  | 2.7366     | 2.7366     | 2.7366     |   0.0 | 49.80
Other   |            | 0.0172     |            |       |  0.31

Nlocal:         233472 ave      233472 max      233472 min
Histogram: 1 0 0 0 0 0 0 0 0 0
Nghost:         138593 ave      138593 max      138593 min
Histogram: 1 0 0 0 0 0 0 0 0 0
Neighs:    6.26786e+07 ave 6.26786e+07 max 6.26786e+07 min
Histogram: 1 0 0 0 0 0 0 0 0 0
FullNghs:  1.14628e+08 ave 1.14628e+08 max 1.14628e+08 min
Histogram: 1 0 0 0 0 0 0 0 0 0

Total # of neighbors = 1.1462846e+08
Ave neighs/atom = 490.97307
Neighbor list builds = 10
Dangerous builds not checked
Total wall time: 0:00:06
