LAMMPS (4 Feb 2025 - Development)
KOKKOS mode with Kokkos version 4.5.1 is enabled (../kokkos.cpp:72)
  will use up to 1 GPU(s) per node
package kokkos
package kokkos neigh half neigh/qeq full newton on comm device pair/only off
# 3d Lennard-Jones melt

units		lj
atom_style	atomic

lattice		fcc 0.8442
Lattice spacing in x,y,z = 1.6795962 1.6795962 1.6795962
region		box block 0 $x 0 $y 0 $z
region		box block 0 160 0 $y 0 $z
region		box block 0 160 0 160 0 $z
region		box block 0 160 0 160 0 320
create_box	1 box
Created orthogonal box = (0 0 0) to (268.73539 268.73539 537.47078)
  1 by 1 by 1 MPI processor grid
create_atoms	1 box
Created 32768000 atoms
  using lattice units in orthogonal box = (0 0 0) to (268.73539 268.73539 537.47078)
  create_atoms CPU = 2.259 seconds
mass		1 1.0

velocity	all create 1.44 87287 loop geom

pair_style	lj/cut 2.5
pair_coeff	1 1 1.0 1.0 2.5

neighbor	0.3 bin
neigh_modify	delay 0 every 20 check no

fix		1 all nve
thermo          10000

run		$t
run		1000
Generated 0 of 0 mixed pair_coeff terms from geometric mixing rule
Neighbor list info ...
  update: every = 20 steps, delay = 0 steps, check = no
  max neighbors/atom: 2000, page size: 100000
  master list distance cutoff = 2.8
  ghost atom cutoff = 2.8
  binsize = 2.8, bins = 96 96 192
  1 neighbor lists, perpetual/occasional/extra = 1 0 0
  (1) pair lj/cut/kk, perpetual
      attributes: half, newton on, kokkos_device
      pair build: half/bin/newton/kk/device
      stencil: half/bin/3d
      bin: kk/device
Per MPI rank memory allocation (min/avg/max) = 4287 | 4287 | 4287 Mbytes
   Step          Temp          E_pair         E_mol          TotEng         Press     
         0   1.44          -6.7733681      0             -4.6133681     -5.0196693    
      1000   0.70381026    -5.6761714      0             -4.620456       0.70457088   
Loop time of 41.5865 on 1 procs for 1000 steps with 32768000 atoms

Performance: 10387.985 tau/day, 24.046 timesteps/s, 787.948 Matom-step/s
98.5% CPU use with 1 MPI tasks x 1 OpenMP threads

MPI task timing breakdown:
Section |  min time  |  avg time  |  max time  |%varavg| %total
---------------------------------------------------------------
Pair    | 1.8698     | 1.8698     | 1.8698     |   0.0 |  4.50
Neigh   | 2.7658     | 2.7658     | 2.7658     |   0.0 |  6.65
Comm    | 36.317     | 36.317     | 36.317     |   0.0 | 87.33
Output  | 0.00064056 | 0.00064056 | 0.00064056 |   0.0 |  0.00
Modify  | 0.0090758  | 0.0090758  | 0.0090758  |   0.0 |  0.02
Other   |            | 0.6238     |            |       |  1.50

Nlocal:     3.2768e+07 ave  3.2768e+07 max  3.2768e+07 min
Histogram: 1 0 0 0 0 0 0 0 0 0
Nghost:    1.74415e+06 ave 1.74415e+06 max 1.74415e+06 min
Histogram: 1 0 0 0 0 0 0 0 0 0
Neighs:    1.22836e+09 ave 1.22836e+09 max 1.22836e+09 min
Histogram: 1 0 0 0 0 0 0 0 0 0

Total # of neighbors = 1.228365e+09
Ave neighs/atom = 37.486725
Neighbor list builds = 50
Dangerous builds not checked
Total wall time: 0:01:01
