LAMMPS (4 Feb 2025 - Development)
KOKKOS mode with Kokkos version 4.5.1 is enabled (../kokkos.cpp:72)
  will use up to 1 GPU(s) per node
package kokkos
package kokkos neigh half neigh/qeq full newton on comm device pair/only off
# Pure HNS crystal, ReaxFF tests for benchmarking LAMMPS
# See README for more info

units		real
atom_style	charge
atom_modify sort  100 0.0
dimension       3
boundary        p p p
box               tilt large

The 'box' command has been removed and will be ignored


read_data  	data.hns
Reading data file ...
  triclinic box = (0 0 0) to (22.326 11.1412 13.778966) with tilt (0 -5.02603 0)
  1 by 1 by 1 MPI processor grid
  reading atoms ...
  304 atoms
  reading velocities ...
  304 velocities
  read_data CPU = 0.009 seconds
replicate         $x $y $z bbox
replicate         8 $y $z bbox
replicate         8 16 $z bbox
replicate         8 16 12 bbox
Replication is creating a 8x16x12 = 1536 times larger system...
  triclinic box = (0 0 0) to (178.608 178.2592 165.34759) with tilt (0 -60.31236 0)
  1 by 1 by 1 MPI processor grid
  bounding box image = (0 -1 -1) to (0 1 1)
  bounding box extra memory = 0.03 MB
  average # of replicas added to proc = 1536.00 out of 1536 (100.00%)
  466944 atoms
  replicate CPU = 0.034 seconds

pair_style        reaxff NULL
pair_coeff	* * ffield.reax.hns C H O N

compute   	reax all pair reaxff

neighbor	1.0 bin
neigh_modify      every 20 delay 0 check no

timestep        0.1

thermo_style      custom step temp pe press evdwl ecoul vol
thermo_modify	norm yes
thermo	  	100

velocity          all create 300.0 41279 loop geom

fix		1 all nve
fix             2 all qeq/reaxff 1 0.0 10.0 1e-6 reaxff

run  		$t
run  		200
Neighbor list info ...
  update: every = 20 steps, delay = 0 steps, check = no
  max neighbors/atom: 2000, page size: 100000
  master list distance cutoff = 11
  ghost atom cutoff = 11
  binsize = 11, bins = 22 17 16
  2 neighbor lists, perpetual/occasional/extra = 2 0 0
  (1) pair reaxff/kk, perpetual
      attributes: half, newton off, ghost, kokkos_device
      pair build: half/bin/newtoff/ghost/kk/device
      stencil: full/ghost/bin/3d
      bin: kk/device
  (2) fix qeq/reaxff/kk, perpetual
      attributes: full, newton off, kokkos_device
      pair build: full/bin/kk/device
      stencil: full/bin/3d
      bin: kk/device
Per MPI rank memory allocation (min/avg/max) = 5146 | 5146 | 5146 Mbytes
   Step          Temp          PotEng         Press          E_vdwl         E_coul         Volume    
         0   300           -113.27833      439.01072     -111.57687     -1.7014647      5264422.5    
       100   302.77287     -113.28587      9987.2713     -111.58707     -1.6988085      5264422.5    
       200   293.85763     -113.25917      9518.543      -111.5601      -1.6990729      5264422.5    
Loop time of 9.46579 on 1 procs for 200 steps with 466944 atoms

Performance: 0.183 ns/day, 131.469 hours/ns, 21.129 timesteps/s, 9.866 Matom-step/s
98.5% CPU use with 1 MPI tasks x 1 OpenMP threads

MPI task timing breakdown:
Section |  min time  |  avg time  |  max time  |%varavg| %total
---------------------------------------------------------------
Pair    | 4.3149     | 4.3149     | 4.3149     |   0.0 | 45.58
Neigh   | 0.17005    | 0.17005    | 0.17005    |   0.0 |  1.80
Comm    | 0.32002    | 0.32002    | 0.32002    |   0.0 |  3.38
Output  | 0.00069551 | 0.00069551 | 0.00069551 |   0.0 |  0.01
Modify  | 4.6306     | 4.6306     | 4.6306     |   0.0 | 48.92
Other   |            | 0.02949    |            |       |  0.31

Nlocal:         466944 ave      466944 max      466944 min
Histogram: 1 0 0 0 0 0 0 0 0 0
Nghost:         203817 ave      203817 max      203817 min
Histogram: 1 0 0 0 0 0 0 0 0 0
Neighs:    1.22837e+08 ave 1.22837e+08 max 1.22837e+08 min
Histogram: 1 0 0 0 0 0 0 0 0 0
FullNghs:  2.29255e+08 ave 2.29255e+08 max 2.29255e+08 min
Histogram: 1 0 0 0 0 0 0 0 0 0

Total # of neighbors = 2.2925507e+08
Ave neighs/atom = 490.9691
Neighbor list builds = 10
Dangerous builds not checked
Total wall time: 0:00:10
