LAMMPS (4 Feb 2025 - Development)
KOKKOS mode with Kokkos version 4.5.1 is enabled (../kokkos.cpp:72)
  will use up to 1 GPU(s) per node
package kokkos
package kokkos neigh half neigh/qeq full newton on comm device pair/only off
# Pure HNS crystal, ReaxFF tests for benchmarking LAMMPS
# See README for more info

units		real
atom_style	charge
atom_modify sort  100 0.0
dimension       3
boundary        p p p
box               tilt large

The 'box' command has been removed and will be ignored


read_data  	data.hns
Reading data file ...
  triclinic box = (0 0 0) to (22.326 11.1412 13.778966) with tilt (0 -5.02603 0)
  1 by 1 by 1 MPI processor grid
  reading atoms ...
  304 atoms
  reading velocities ...
  304 velocities
  read_data CPU = 0.009 seconds
replicate         $x $y $z bbox
replicate         16 $y $z bbox
replicate         16 16 $z bbox
replicate         16 16 24 bbox
Replication is creating a 16x16x24 = 6144 times larger system...
  triclinic box = (0 0 0) to (357.216 178.2592 330.69518) with tilt (0 -120.62472 0)
  1 by 1 by 1 MPI processor grid
  bounding box image = (0 -1 -1) to (0 1 1)
  bounding box extra memory = 0.03 MB
  average # of replicas added to proc = 6144.00 out of 6144 (100.00%)
  1867776 atoms
  replicate CPU = 0.123 seconds

pair_style        reaxff NULL
pair_coeff	* * ffield.reax.hns C H O N

compute   	reax all pair reaxff

neighbor	1.0 bin
neigh_modify      every 20 delay 0 check no

timestep        0.1

thermo_style      custom step temp pe press evdwl ecoul vol
thermo_modify	norm yes
thermo	  	100

velocity          all create 300.0 41279 loop geom

fix		1 all nve
fix             2 all qeq/reaxff 1 0.0 10.0 1e-6 reaxff

run  		$t
run  		200
Neighbor list info ...
  update: every = 20 steps, delay = 0 steps, check = no
  max neighbors/atom: 2000, page size: 100000
  master list distance cutoff = 11
  ghost atom cutoff = 11
  binsize = 11, bins = 44 17 31
  2 neighbor lists, perpetual/occasional/extra = 2 0 0
  (1) pair reaxff/kk, perpetual
      attributes: half, newton off, ghost, kokkos_device
      pair build: half/bin/newtoff/ghost/kk/device
      stencil: full/ghost/bin/3d
      bin: kk/device
  (2) fix qeq/reaxff/kk, perpetual
      attributes: full, newton off, kokkos_device
      pair build: full/bin/kk/device
      stencil: full/bin/3d
      bin: kk/device
Per MPI rank memory allocation (min/avg/max) = 1.945e+04 | 1.945e+04 | 1.945e+04 Mbytes
   Step          Temp          PotEng         Press          E_vdwl         E_coul         Volume    
         0   300           -113.27833      439.01838     -111.57687     -1.7014647      21057690     
       100   302.5859      -113.28532      10310.229     -111.58663     -1.6986863      21057690     
       200   294.04597     -113.25974      9718.7117     -111.56072     -1.6990136      21057690     
Loop time of 33.6173 on 1 procs for 200 steps with 1867776 atoms

Performance: 0.051 ns/day, 466.907 hours/ns, 5.949 timesteps/s, 11.112 Matom-step/s
97.6% CPU use with 1 MPI tasks x 1 OpenMP threads

MPI task timing breakdown:
Section |  min time  |  avg time  |  max time  |%varavg| %total
---------------------------------------------------------------
Pair    | 15.273     | 15.273     | 15.273     |   0.0 | 45.43
Neigh   | 0.5735     | 0.5735     | 0.5735     |   0.0 |  1.71
Comm    | 1.4839     | 1.4839     | 1.4839     |   0.0 |  4.41
Output  | 0.0021631  | 0.0021631  | 0.0021631  |   0.0 |  0.01
Modify  | 16.186     | 16.186     | 16.186     |   0.0 | 48.15
Other   |            | 0.09815    |            |       |  0.29

Nlocal:    1.86778e+06 ave 1.86778e+06 max 1.86778e+06 min
Histogram: 1 0 0 0 0 0 0 0 0 0
Nghost:         513509 ave      513509 max      513509 min
Histogram: 1 0 0 0 0 0 0 0 0 0
Neighs:    4.80283e+08 ave 4.80283e+08 max 4.80283e+08 min
Histogram: 1 0 0 0 0 0 0 0 0 0
FullNghs:  9.17028e+08 ave 9.17028e+08 max 9.17028e+08 min
Histogram: 1 0 0 0 0 0 0 0 0 0

Total # of neighbors = 9.1702826e+08
Ave neighs/atom = 490.97336
Neighbor list builds = 10
Dangerous builds not checked
Total wall time: 0:00:36
