LAMMPS (4 Feb 2025 - Development - patch_4Feb2025-76-gf0bc9ddcc9-modified)
KOKKOS mode with Kokkos version 4.5.1 is enabled (../kokkos.cpp:72)
  will use up to 1 GPU(s) per node
package kokkos
package kokkos neigh half neigh/qeq full newton on comm device pair/only off neigh/transpose on
# Demonstrate SNAP W potential

# Initialize simulation

variable nsteps index 100
variable nrep equal 10
variable a equal 3.1803
units           metal

boundary        p p p

lattice         bcc $a
lattice         bcc 3.1803
Lattice spacing in x,y,z = 3.1803 3.1803 3.1803
region          box block 0 ${x} 0 ${y} 0 ${z}
region          box block 0 160 0 ${y} 0 ${z}
region          box block 0 160 0 320 0 ${z}
region          box block 0 160 0 320 0 320
create_box      1 box
Created orthogonal box = (0 0 0) to (508.848 1017.696 1017.696)
  8 by 32 by 32 MPI processor grid
create_atoms    1 box
Created 32768000 atoms
  using lattice units in orthogonal box = (0 0 0) to (508.848 1017.696 1017.696)
  create_atoms CPU = 0.007 seconds

mass 1 183.84

# choose potential

include W_2940_2017_2.snap
# DATE: 2017-02-20 UNITS: metal CONTRIBUTOR: Mitchell Wood mitwood@sandia.gov CITATION: Wood, M. A. and Thompson, A. P. "Quantum-Accurate Molecular Dynamics Potential for Tungsten" arXiv:1702.07042 [physics.comp-ph]
#
# Definition of SNAP+ZBL potential.
variable zblcutinner equal 4
variable zblcutouter equal 4.8
variable zblz equal 74

# Specify hybrid with SNAP and ZBL

pair_style hybrid/overlay zbl ${zblcutinner} ${zblcutouter} snap
pair_style hybrid/overlay zbl 4 ${zblcutouter} snap
pair_style hybrid/overlay zbl 4 4.8 snap
pair_coeff 1 1 zbl ${zblz} ${zblz}
pair_coeff 1 1 zbl 74 ${zblz}
pair_coeff 1 1 zbl 74 74
pair_coeff * * snap W_2940_2017_2.snapcoeff W_2940_2017_2.snapparam W
Reading potential file W_2940_2017_2.snapcoeff with DATE: 2017-02-20
SNAP Element = W, Radius 0.5, Weight 1
Reading potential file W_2940_2017_2.snapparam with DATE: 2017-02-20
SNAP keyword rcutfac 4.73442
SNAP keyword twojmax 8
SNAP keyword rfac0 0.99363
SNAP keyword rmin0 0
SNAP keyword bzeroflag 0
SNAP keyword quadraticflag 0
#pair_coeff * * snap W_2J14.snapcoeff W_2J14.snapparam W # 2J14

#Nomenclature on the snap files are Element_DakotaID_Year_Month

# Setup output

thermo          1000
thermo_modify norm yes

# Set up NVE run

timestep 0.5e-3
neighbor 1.0 bin
neigh_modify every 1 delay 0 check yes

# Run MD

velocity all create 800.0 4928459
fix 1 all nve

run             ${t}
run             200
Neighbor list info ...
  update: every = 1 steps, delay = 0 steps, check = yes
  max neighbors/atom: 2000, page size: 100000
  master list distance cutoff = 5.8
  ghost atom cutoff = 5.8
  binsize = 5.8, bins = 88 176 176
  2 neighbor lists, perpetual/occasional/extra = 2 0 0
  (1) pair zbl, perpetual, half/full from (2)
      attributes: half, newton on, kokkos_device, cut 5.8
      pair build: halffull/newton/kk/device
      stencil: none
      bin: none
  (2) pair snap, perpetual
      attributes: full, newton on, kokkos_device
      pair build: full/bin/kk/device
      stencil: full/bin/3d
      bin: kk/device
Per MPI rank memory allocation (min/avg/max) = 5.86 | 5.86 | 5.86 Mbytes
   Step          Temp          E_pair         E_mol          TotEng         Press     
         0   800           -11.028325      0             -10.924916      7322.8117    
       200   561.57815     -10.997505      0             -10.924915      14483.509    
Loop time of 0.642496 on 8192 procs for 200 steps with 32768000 atoms

Performance: 13.448 ns/day, 1.785 hours/ns, 311.286 timesteps/s, 10.200 Gatom-step/s
163.5% CPU use with 8192 MPI tasks x 1 OpenMP threads

MPI task timing breakdown:
Section |  min time  |  avg time  |  max time  |%varavg| %total
---------------------------------------------------------------
Pair    | 0.44343    | 0.46814    | 0.50056    |   1.1 | 72.86
Neigh   | 0          | 0          | 0          |   0.0 |  0.00
Comm    | 0.081709   | 0.10569    | 0.15049    |   2.7 | 16.45
Output  | 0.00041014 | 0.00063799 | 0.00075369 |   0.0 |  0.10
Modify  | 0.0034431  | 0.0037876  | 0.0080075  |   0.6 |  0.59
Other   |            | 0.06424    |            |       | 10.00

Nlocal:           4000 ave        4000 max        4000 min
Histogram: 8192 0 0 0 0 0 0 0 0 0
Nghost:           4591 ave        4591 max        4591 min
Histogram: 8192 0 0 0 0 0 0 0 0 0
Neighs:         116000 ave      116000 max      116000 min
Histogram: 8192 0 0 0 0 0 0 0 0 0
FullNghs:       232000 ave      232000 max      232000 min
Histogram: 8192 0 0 0 0 0 0 0 0 0

Total # of neighbors = 1.900544e+09
Ave neighs/atom = 58
Neighbor list builds = 0
Dangerous builds = 0

Total wall time: 0:00:04
