LAMMPS (4 Feb 2025 - Development)
KOKKOS mode with Kokkos version 4.5.1 is enabled (../kokkos.cpp:72)
  will use up to 1 GPU(s) per node
package kokkos
package kokkos neigh full neigh/qeq full neigh/thread on neigh/transpose off newton off comm device pair/only off
# 3d Lennard-Jones melt

units		lj
atom_style	atomic

lattice		fcc 0.8442
Lattice spacing in x,y,z = 1.6795962 1.6795962 1.6795962
region		box block 0 $x 0 $y 0 $z
region		box block 0 10 0 $y 0 $z
region		box block 0 10 0 20 0 $z
region		box block 0 10 0 20 0 20
create_box	1 box
Created orthogonal box = (0 0 0) to (16.795962 33.591924 33.591924)
  1 by 1 by 1 MPI processor grid
create_atoms	1 box
Created 16000 atoms
  using lattice units in orthogonal box = (0 0 0) to (16.795962 33.591924 33.591924)
  create_atoms CPU = 0.003 seconds
mass		1 1.0

velocity	all create 1.44 87287 loop geom

pair_style	lj/cut 2.5
pair_coeff	1 1 1.0 1.0 2.5

neighbor	0.3 bin
neigh_modify	delay 0 every 20 check no

fix		1 all nve
thermo          10000

run		$t
run		1000
Generated 0 of 0 mixed pair_coeff terms from geometric mixing rule
Neighbor list info ...
  update: every = 20 steps, delay = 0 steps, check = no
  max neighbors/atom: 2000, page size: 100000
  master list distance cutoff = 2.8
  ghost atom cutoff = 2.8
  binsize = 2.8, bins = 6 12 12
  1 neighbor lists, perpetual/occasional/extra = 1 0 0
  (1) pair lj/cut/kk, perpetual
      attributes: full, newton off, kokkos_device
      pair build: full/bin/kk/device
      stencil: full/bin/3d
      bin: kk/device
Per MPI rank memory allocation (min/avg/max) = 4.515 | 4.515 | 4.515 Mbytes
   Step          Temp          E_pair         E_mol          TotEng         Press     
         0   1.44          -6.7733681      0             -4.6135031     -5.0197452    
      1000   0.7053273     -5.6785389      0             -4.6206141      0.68453881   
Loop time of 0.0947124 on 1 procs for 1000 steps with 16000 atoms

Performance: 4561179.095 tau/day, 10558.285 timesteps/s, 168.933 Matom-step/s
98.9% CPU use with 1 MPI tasks x 1 OpenMP threads

MPI task timing breakdown:
Section |  min time  |  avg time  |  max time  |%varavg| %total
---------------------------------------------------------------
Pair    | 0.013146   | 0.013146   | 0.013146   |   0.0 | 13.88
Neigh   | 0.012579   | 0.012579   | 0.012579   |   0.0 | 13.28
Comm    | 0.024819   | 0.024819   | 0.024819   |   0.0 | 26.20
Output  | 4.4268e-05 | 4.4268e-05 | 4.4268e-05 |   0.0 |  0.05
Modify  | 0.043552   | 0.043552   | 0.043552   |   0.0 | 45.98
Other   |            | 0.0005731  |            |       |  0.61

Nlocal:          16000 ave       16000 max       16000 min
Histogram: 1 0 0 0 0 0 0 0 0 0
Nghost:          13221 ave       13221 max       13221 min
Histogram: 1 0 0 0 0 0 0 0 0 0
Neighs:              0 ave           0 max           0 min
Histogram: 1 0 0 0 0 0 0 0 0 0
FullNghs:  1.19903e+06 ave 1.19903e+06 max 1.19903e+06 min
Histogram: 1 0 0 0 0 0 0 0 0 0

Total # of neighbors = 1199030
Ave neighs/atom = 74.939375
Neighbor list builds = 50
Dangerous builds not checked
Total wall time: 0:00:00
