LAMMPS (4 Feb 2025 - Development)
KOKKOS mode with Kokkos version 4.5.1 is enabled (../kokkos.cpp:72)
  will use up to 1 GPU(s) per node
package kokkos
package kokkos neigh half neigh/qeq full newton off comm device pair/only off
# 3d Lennard-Jones melt

units		lj
atom_style	atomic

lattice		fcc 0.8442
Lattice spacing in x,y,z = 1.6795962 1.6795962 1.6795962
region		box block 0 $x 0 $y 0 $z
region		box block 0 20 0 $y 0 $z
region		box block 0 20 0 40 0 $z
region		box block 0 20 0 40 0 40
create_box	1 box
Created orthogonal box = (0 0 0) to (33.591924 67.183848 67.183848)
  1 by 1 by 1 MPI processor grid
create_atoms	1 box
Created 128000 atoms
  using lattice units in orthogonal box = (0 0 0) to (33.591924 67.183848 67.183848)
  create_atoms CPU = 0.011 seconds
mass		1 1.0

velocity	all create 1.44 87287 loop geom

pair_style	lj/cut 2.5
pair_coeff	1 1 1.0 1.0 2.5

neighbor	0.3 bin
neigh_modify	delay 0 every 20 check no

fix		1 all nve
thermo          10000

run		$t
run		1000
Generated 0 of 0 mixed pair_coeff terms from geometric mixing rule
Neighbor list info ...
  update: every = 20 steps, delay = 0 steps, check = no
  max neighbors/atom: 2000, page size: 100000
  master list distance cutoff = 2.8
  ghost atom cutoff = 2.8
  binsize = 2.8, bins = 12 24 24
  1 neighbor lists, perpetual/occasional/extra = 1 0 0
  (1) pair lj/cut/kk, perpetual
      attributes: half, newton off, kokkos_device
      pair build: half/bin/newtoff/kk/device
      stencil: full/bin/3d
      bin: kk/device
Per MPI rank memory allocation (min/avg/max) = 23.64 | 23.64 | 23.64 Mbytes
   Step          Temp          E_pair         E_mol          TotEng         Press     
         0   1.44          -6.7733681      0             -4.6133849     -5.0196788    
      1000   0.70265736    -5.6743001      0             -4.6203222      0.71484658   
Loop time of 0.264953 on 1 procs for 1000 steps with 128000 atoms

Performance: 1630480.437 tau/day, 3774.260 timesteps/s, 483.105 Matom-step/s
98.9% CPU use with 1 MPI tasks x 1 OpenMP threads

MPI task timing breakdown:
Section |  min time  |  avg time  |  max time  |%varavg| %total
---------------------------------------------------------------
Pair    | 0.016128   | 0.016128   | 0.016128   |   0.0 |  6.09
Neigh   | 0.02373    | 0.02373    | 0.02373    |   0.0 |  8.96
Comm    | 0.037252   | 0.037252   | 0.037252   |   0.0 | 14.06
Output  | 4.9279e-05 | 4.9279e-05 | 4.9279e-05 |   0.0 |  0.02
Modify  | 0.18419    | 0.18419    | 0.18419    |   0.0 | 69.52
Other   |            | 0.003601   |            |       |  1.36

Nlocal:         128000 ave      128000 max      128000 min
Histogram: 1 0 0 0 0 0 0 0 0 0
Nghost:          47532 ave       47532 max       47532 min
Histogram: 1 0 0 0 0 0 0 0 0 0
Neighs:     5.0928e+06 ave  5.0928e+06 max  5.0928e+06 min
Histogram: 1 0 0 0 0 0 0 0 0 0

Total # of neighbors = 5092799
Ave neighs/atom = 39.787492
Neighbor list builds = 50
Dangerous builds not checked
Total wall time: 0:00:00
