LAMMPS (4 Feb 2025 - Development)
KOKKOS mode with Kokkos version 4.5.1 is enabled (../kokkos.cpp:72)
  will use up to 1 GPU(s) per node
package kokkos
package kokkos neigh half neigh/qeq full newton off comm device pair/only off
# 3d Lennard-Jones melt

units		lj
atom_style	atomic

lattice		fcc 0.8442
Lattice spacing in x,y,z = 1.6795962 1.6795962 1.6795962
region		box block 0 $x 0 $y 0 $z
region		box block 0 40 0 $y 0 $z
region		box block 0 40 0 40 0 $z
region		box block 0 40 0 40 0 40
create_box	1 box
Created orthogonal box = (0 0 0) to (67.183848 67.183848 67.183848)
  1 by 1 by 1 MPI processor grid
create_atoms	1 box
Created 256000 atoms
  using lattice units in orthogonal box = (0 0 0) to (67.183848 67.183848 67.183848)
  create_atoms CPU = 0.021 seconds
mass		1 1.0

velocity	all create 1.44 87287 loop geom

pair_style	lj/cut 2.5
pair_coeff	1 1 1.0 1.0 2.5

neighbor	0.3 bin
neigh_modify	delay 0 every 20 check no

fix		1 all nve
thermo          10000

run		$t
run		1000
Generated 0 of 0 mixed pair_coeff terms from geometric mixing rule
Neighbor list info ...
  update: every = 20 steps, delay = 0 steps, check = no
  max neighbors/atom: 2000, page size: 100000
  master list distance cutoff = 2.8
  ghost atom cutoff = 2.8
  binsize = 2.8, bins = 24 24 24
  1 neighbor lists, perpetual/occasional/extra = 1 0 0
  (1) pair lj/cut/kk, perpetual
      attributes: half, newton off, kokkos_device
      pair build: half/bin/newtoff/kk/device
      stencil: full/bin/3d
      bin: kk/device
Per MPI rank memory allocation (min/avg/max) = 41.95 | 41.95 | 41.95 Mbytes
   Step          Temp          E_pair         E_mol          TotEng         Press     
         0   1.44          -6.7733681      0             -4.6133765     -5.019674     
      1000   0.70487004    -5.6778301      0             -4.6205291      0.69702722   
Loop time of 0.455618 on 1 procs for 1000 steps with 256000 atoms

Performance: 948163.504 tau/day, 2194.823 timesteps/s, 561.875 Matom-step/s
98.7% CPU use with 1 MPI tasks x 1 OpenMP threads

MPI task timing breakdown:
Section |  min time  |  avg time  |  max time  |%varavg| %total
---------------------------------------------------------------
Pair    | 0.024149   | 0.024149   | 0.024149   |   0.0 |  5.30
Neigh   | 0.045527   | 0.045527   | 0.045527   |   0.0 |  9.99
Comm    | 0.045014   | 0.045014   | 0.045014   |   0.0 |  9.88
Output  | 5.1531e-05 | 5.1531e-05 | 5.1531e-05 |   0.0 |  0.01
Modify  | 0.33653    | 0.33653    | 0.33653    |   0.0 | 73.86
Other   |            | 0.004348   |            |       |  0.95

Nlocal:         256000 ave      256000 max      256000 min
Histogram: 1 0 0 0 0 0 0 0 0 0
Nghost:          69821 ave       69821 max       69821 min
Histogram: 1 0 0 0 0 0 0 0 0 0
Neighs:    1.00399e+07 ave 1.00399e+07 max 1.00399e+07 min
Histogram: 1 0 0 0 0 0 0 0 0 0

Total # of neighbors = 10039927
Ave neighs/atom = 39.218465
Neighbor list builds = 50
Dangerous builds not checked
Total wall time: 0:00:01
