LAMMPS (4 Feb 2025 - Development)
KOKKOS mode with Kokkos version 4.5.1 is enabled (../kokkos.cpp:72)
  will use up to 1 GPU(s) per node
package kokkos
package kokkos neigh half neigh/qeq full newton on comm device pair/only off
# 3d Lennard-Jones melt

units		lj
atom_style	atomic

lattice		fcc 0.8442
Lattice spacing in x,y,z = 1.6795962 1.6795962 1.6795962
region		box block 0 $x 0 $y 0 $z
region		box block 0 10 0 $y 0 $z
region		box block 0 10 0 10 0 $z
region		box block 0 10 0 10 0 20
create_box	1 box
Created orthogonal box = (0 0 0) to (16.795962 16.795962 33.591924)
  1 by 1 by 1 MPI processor grid
create_atoms	1 box
Created 8000 atoms
  using lattice units in orthogonal box = (0 0 0) to (16.795962 16.795962 33.591924)
  create_atoms CPU = 0.002 seconds
mass		1 1.0

velocity	all create 1.44 87287 loop geom

pair_style	lj/cut 2.5
pair_coeff	1 1 1.0 1.0 2.5

neighbor	0.3 bin
neigh_modify	delay 0 every 20 check no

fix		1 all nve
thermo          10000

run		$t
run		1000
Generated 0 of 0 mixed pair_coeff terms from geometric mixing rule
Neighbor list info ...
  update: every = 20 steps, delay = 0 steps, check = no
  max neighbors/atom: 2000, page size: 100000
  master list distance cutoff = 2.8
  ghost atom cutoff = 2.8
  binsize = 2.8, bins = 6 6 12
  1 neighbor lists, perpetual/occasional/extra = 1 0 0
  (1) pair lj/cut/kk, perpetual
      attributes: half, newton on, kokkos_device
      pair build: half/bin/newton/kk/device
      stencil: half/bin/3d
      bin: kk/device
Per MPI rank memory allocation (min/avg/max) = 2.948 | 2.948 | 2.948 Mbytes
   Step          Temp          E_pair         E_mol          TotEng         Press     
         0   1.44          -6.7733681      0             -4.6136381     -5.0198212    
      1000   0.70546478    -5.6789988      0             -4.6209339      0.67379693   
Loop time of 0.134934 on 1 procs for 1000 steps with 8000 atoms

Performance: 3201567.226 tau/day, 7411.035 timesteps/s, 59.288 Matom-step/s
98.9% CPU use with 1 MPI tasks x 1 OpenMP threads

MPI task timing breakdown:
Section |  min time  |  avg time  |  max time  |%varavg| %total
---------------------------------------------------------------
Pair    | 0.020875   | 0.020875   | 0.020875   |   0.0 | 15.47
Neigh   | 0.0081068  | 0.0081068  | 0.0081068  |   0.0 |  6.01
Comm    | 0.095053   | 0.095053   | 0.095053   |   0.0 | 70.44
Output  | 4.3518e-05 | 4.3518e-05 | 4.3518e-05 |   0.0 |  0.03
Modify  | 0.0082355  | 0.0082355  | 0.0082355  |   0.0 |  6.10
Other   |            | 0.00262    |            |       |  1.94

Nlocal:           8000 ave        8000 max        8000 min
Histogram: 1 0 0 0 0 0 0 0 0 0
Nghost:           8734 ave        8734 max        8734 min
Histogram: 1 0 0 0 0 0 0 0 0 0
Neighs:         299990 ave      299990 max      299990 min
Histogram: 1 0 0 0 0 0 0 0 0 0

Total # of neighbors = 299990
Ave neighs/atom = 37.49875
Neighbor list builds = 50
Dangerous builds not checked
Total wall time: 0:00:00
