LAMMPS (4 Feb 2025 - Development)
KOKKOS mode with Kokkos version 4.5.1 is enabled (../kokkos.cpp:72)
  will use up to 1 GPU(s) per node
package kokkos
package kokkos neigh full neigh/qeq full newton off comm device pair/only off
# 3d Lennard-Jones melt

units		lj
atom_style	atomic

lattice		fcc 0.8442
Lattice spacing in x,y,z = 1.6795962 1.6795962 1.6795962
region		box block 0 $x 0 $y 0 $z
region		box block 0 20 0 $y 0 $z
region		box block 0 20 0 20 0 $z
region		box block 0 20 0 20 0 40
create_box	1 box
Created orthogonal box = (0 0 0) to (33.591924 33.591924 67.183848)
  1 by 1 by 1 MPI processor grid
create_atoms	1 box
Created 64000 atoms
  using lattice units in orthogonal box = (0 0 0) to (33.591924 33.591924 67.183848)
  create_atoms CPU = 0.007 seconds
mass		1 1.0

velocity	all create 1.44 87287 loop geom

pair_style	lj/cut 2.5
pair_coeff	1 1 1.0 1.0 2.5

neighbor	0.3 bin
neigh_modify	delay 0 every 20 check no

fix		1 all nve
thermo          10000

run		$t
run		1000
Generated 0 of 0 mixed pair_coeff terms from geometric mixing rule
Neighbor list info ...
  update: every = 20 steps, delay = 0 steps, check = no
  max neighbors/atom: 2000, page size: 100000
  master list distance cutoff = 2.8
  ghost atom cutoff = 2.8
  binsize = 2.8, bins = 12 12 24
  1 neighbor lists, perpetual/occasional/extra = 1 0 0
  (1) pair lj/cut/kk, perpetual
      attributes: full, newton off, kokkos_device
      pair build: full/bin/kk/device
      stencil: full/bin/3d
      bin: kk/device
Per MPI rank memory allocation (min/avg/max) = 12.89 | 12.89 | 12.89 Mbytes
   Step          Temp          E_pair         E_mol          TotEng         Press     
         0   1.44          -6.7733681      0             -4.6134018     -5.0196883    
      1000   0.70471988    -5.6775251      0             -4.6204618      0.70402225   
Loop time of 0.134835 on 1 procs for 1000 steps with 64000 atoms

Performance: 3203927.350 tau/day, 7416.498 timesteps/s, 474.656 Matom-step/s
99.2% CPU use with 1 MPI tasks x 1 OpenMP threads

MPI task timing breakdown:
Section |  min time  |  avg time  |  max time  |%varavg| %total
---------------------------------------------------------------
Pair    | 0.01441    | 0.01441    | 0.01441    |   0.0 | 10.69
Neigh   | 0.02047    | 0.02047    | 0.02047    |   0.0 | 15.18
Comm    | 0.030454   | 0.030454   | 0.030454   |   0.0 | 22.59
Output  | 4.7749e-05 | 4.7749e-05 | 4.7749e-05 |   0.0 |  0.04
Modify  | 0.068394   | 0.068394   | 0.068394   |   0.0 | 50.72
Other   |            | 0.001059   |            |       |  0.79

Nlocal:          64000 ave       64000 max       64000 min
Histogram: 1 0 0 0 0 0 0 0 0 0
Nghost:          30441 ave       30441 max       30441 min
Histogram: 1 0 0 0 0 0 0 0 0 0
Neighs:              0 ave           0 max           0 min
Histogram: 1 0 0 0 0 0 0 0 0 0
FullNghs:  4.79851e+06 ave 4.79851e+06 max 4.79851e+06 min
Histogram: 1 0 0 0 0 0 0 0 0 0

Total # of neighbors = 4798514
Ave neighs/atom = 74.976781
Neighbor list builds = 50
Dangerous builds not checked
Total wall time: 0:00:00
