LAMMPS (4 Feb 2025 - Development)
KOKKOS mode with Kokkos version 4.5.1 is enabled (../kokkos.cpp:72)
  will use up to 1 GPU(s) per node
package kokkos
package kokkos neigh half neigh/qeq full newton on comm device pair/only off
# 3d Lennard-Jones melt

units		lj
atom_style	atomic

lattice		fcc 0.8442
Lattice spacing in x,y,z = 1.6795962 1.6795962 1.6795962
region		box block 0 $x 0 $y 0 $z
region		box block 0 20 0 $y 0 $z
region		box block 0 20 0 40 0 $z
region		box block 0 20 0 40 0 40
create_box	1 box
Created orthogonal box = (0 0 0) to (33.591924 67.183848 67.183848)
  1 by 1 by 1 MPI processor grid
create_atoms	1 box
Created 128000 atoms
  using lattice units in orthogonal box = (0 0 0) to (33.591924 67.183848 67.183848)
  create_atoms CPU = 0.011 seconds
mass		1 1.0

velocity	all create 1.44 87287 loop geom

pair_style	lj/cut 2.5
pair_coeff	1 1 1.0 1.0 2.5

neighbor	0.3 bin
neigh_modify	delay 0 every 20 check no

fix		1 all nve
thermo          10000

run		$t
run		1000
Generated 0 of 0 mixed pair_coeff terms from geometric mixing rule
Neighbor list info ...
  update: every = 20 steps, delay = 0 steps, check = no
  max neighbors/atom: 2000, page size: 100000
  master list distance cutoff = 2.8
  ghost atom cutoff = 2.8
  binsize = 2.8, bins = 12 24 24
  1 neighbor lists, perpetual/occasional/extra = 1 0 0
  (1) pair lj/cut/kk, perpetual
      attributes: half, newton on, kokkos_device
      pair build: half/bin/newton/kk/device
      stencil: half/bin/3d
      bin: kk/device
Per MPI rank memory allocation (min/avg/max) = 23.64 | 23.64 | 23.64 Mbytes
   Step          Temp          E_pair         E_mol          TotEng         Press     
         0   1.44          -6.7733681      0             -4.6133849     -5.0196788    
      1000   0.70265737    -5.6743001      0             -4.6203222      0.71484658   
Loop time of 0.286507 on 1 procs for 1000 steps with 128000 atoms

Performance: 1507814.226 tau/day, 3490.311 timesteps/s, 446.760 Matom-step/s
99.6% CPU use with 1 MPI tasks x 1 OpenMP threads

MPI task timing breakdown:
Section |  min time  |  avg time  |  max time  |%varavg| %total
---------------------------------------------------------------
Pair    | 0.028447   | 0.028447   | 0.028447   |   0.0 |  9.93
Neigh   | 0.016856   | 0.016856   | 0.016856   |   0.0 |  5.88
Comm    | 0.22923    | 0.22923    | 0.22923    |   0.0 | 80.01
Output  | 5.0326e-05 | 5.0326e-05 | 5.0326e-05 |   0.0 |  0.02
Modify  | 0.0083215  | 0.0083215  | 0.0083215  |   0.0 |  2.90
Other   |            | 0.003603   |            |       |  1.26

Nlocal:         128000 ave      128000 max      128000 min
Histogram: 1 0 0 0 0 0 0 0 0 0
Nghost:          47532 ave       47532 max       47532 min
Histogram: 1 0 0 0 0 0 0 0 0 0
Neighs:    4.79711e+06 ave 4.79711e+06 max 4.79711e+06 min
Histogram: 1 0 0 0 0 0 0 0 0 0

Total # of neighbors = 4797106
Ave neighs/atom = 37.477391
Neighbor list builds = 50
Dangerous builds not checked
Total wall time: 0:00:00
