LAMMPS (4 Feb 2025 - Development - patch_4Feb2025-76-gf0bc9ddcc9-modified)
KOKKOS mode with Kokkos version 4.5.1 is enabled (../kokkos.cpp:72)
  will use up to 1 GPU(s) per node
package kokkos
package kokkos neigh full neigh/qeq full newton off comm device pair/only off neigh/transpose on
# 3d Lennard-Jones melt

units		lj
atom_style	atomic

lattice		fcc 0.8442
Lattice spacing in x,y,z = 1.6795962 1.6795962 1.6795962
region		box block 0 $x 0 $y 0 $z
region		box block 0 640 0 $y 0 $z
region		box block 0 640 0 1280 0 $z
region		box block 0 640 0 1280 0 1280
create_box	1 box
Created orthogonal box = (0 0 0) to (1074.9416 2149.8831 2149.8831)
  8 by 16 by 16 MPI processor grid
create_atoms	1 box
Created 4194304000 atoms
  using lattice units in orthogonal box = (0 0 0) to (1074.9416 2149.8831 2149.8831)
  create_atoms CPU = 0.442 seconds
mass		1 1.0

velocity	all create 1.44 87287 loop geom

pair_style	lj/cut 2.5
pair_coeff	1 1 1.0 1.0 2.5

neighbor	0.3 bin
neigh_modify	delay 0 every 20 check no

fix		1 all nve
thermo          10000

run		$t
run		1000
Generated 0 of 0 mixed pair_coeff terms from geometric mixing rule
Neighbor list info ...
  update: every = 20 steps, delay = 0 steps, check = no
  max neighbors/atom: 2000, page size: 100000
  master list distance cutoff = 2.8
  ghost atom cutoff = 2.8
  binsize = 2.8, bins = 384 768 768
  1 neighbor lists, perpetual/occasional/extra = 1 0 0
  (1) pair lj/cut/kk, perpetual
      attributes: full, newton off, kokkos_device
      pair build: full/bin/kk/device
      stencil: full/bin/3d
      bin: kk/device
Per MPI rank memory allocation (min/avg/max) = 308.1 | 310.3 | 312.5 Mbytes
   Step          Temp          E_pair         E_mol          TotEng         Press     
         0   1.44          -6.7733681      0             -4.6133681     -5.0196693    
      1000   0.70385267    -5.6762404      0             -4.6204614      0.70428119   
Loop time of 7.6085 on 2048 procs for 1000 steps with 4194304000 atoms

Performance: 56778.581 tau/day, 131.432 timesteps/s, 551.265 Gatom-step/s
110.9% CPU use with 2048 MPI tasks x 1 OpenMP threads

MPI task timing breakdown:
Section |  min time  |  avg time  |  max time  |%varavg| %total
---------------------------------------------------------------
Pair    | 0.012643   | 0.014032   | 0.029777   |   1.2 |  0.18
Neigh   | 0.26359    | 0.53433    | 1.7328     |  37.3 |  7.02
Comm    | 3.2061     | 4.274      | 4.8436     |  12.3 | 56.17
Output  | 0.00060267 | 0.090211   | 0.092704   |   3.7 |  1.19
Modify  | 2.2233     | 2.689      | 3.0413     |   8.4 | 35.34
Other   |            | 0.006974   |            |       |  0.09

Nlocal:      2.048e+06 ave 2.04913e+06 max 2.04686e+06 min
Histogram: 13 51 123 328 498 498 327 155 47 8
Nghost:         268187 ave      268941 max      267337 min
Histogram: 1 13 74 232 540 589 383 169 44 3
Neighs:              0 ave           0 max           0 min
Histogram: 2048 0 0 0 0 0 0 0 0 0
FullNghs:  1.53543e+08 ave 1.53699e+08 max 1.53379e+08 min
Histogram: 6 38 99 294 515 531 369 146 41 9

Total # of neighbors = 3.1445614e+11
Ave neighs/atom = 74.972185
Neighbor list builds = 50
Dangerous builds not checked
Total wall time: 0:00:10
