LAMMPS (4 Feb 2025 - Development - patch_4Feb2025-76-gf0bc9ddcc9-modified)
KOKKOS mode with Kokkos version 4.5.1 is enabled (../kokkos.cpp:72)
  will use up to 1 GPU(s) per node
package kokkos
package kokkos neigh full neigh/qeq full newton off comm device pair/only off neigh/transpose on
# 3d Lennard-Jones melt

units		lj
atom_style	atomic

lattice		fcc 0.8442
Lattice spacing in x,y,z = 1.6795962 1.6795962 1.6795962
region		box block 0 $x 0 $y 0 $z
region		box block 0 320 0 $y 0 $z
region		box block 0 320 0 320 0 $z
region		box block 0 320 0 320 0 320
create_box	1 box
Created orthogonal box = (0 0 0) to (537.47078 537.47078 537.47078)
  4 by 4 by 4 MPI processor grid
create_atoms	1 box
Created 131072000 atoms
  using lattice units in orthogonal box = (0 0 0) to (537.47078 537.47078 537.47078)
  create_atoms CPU = 0.508 seconds
mass		1 1.0

velocity	all create 1.44 87287 loop geom

pair_style	lj/cut 2.5
pair_coeff	1 1 1.0 1.0 2.5

neighbor	0.3 bin
neigh_modify	delay 0 every 20 check no

fix		1 all nve
thermo          10000

run		$t
run		1000
Generated 0 of 0 mixed pair_coeff terms from geometric mixing rule
Neighbor list info ...
  update: every = 20 steps, delay = 0 steps, check = no
  max neighbors/atom: 2000, page size: 100000
  master list distance cutoff = 2.8
  ghost atom cutoff = 2.8
  binsize = 2.8, bins = 192 192 192
  1 neighbor lists, perpetual/occasional/extra = 1 0 0
  (1) pair lj/cut/kk, perpetual
      attributes: full, newton off, kokkos_device
      pair build: full/bin/kk/device
      stencil: full/bin/3d
      bin: kk/device
Per MPI rank memory allocation (min/avg/max) = 309 | 310.6 | 312.5 Mbytes
   Step          Temp          E_pair         E_mol          TotEng         Press     
         0   1.44          -6.7733681      0             -4.6133681     -5.0196693    
      1000   0.70384885    -5.6762335      0             -4.6204602      0.70430954   
Loop time of 6.7108 on 64 procs for 1000 steps with 131072000 atoms

Performance: 64373.893 tau/day, 149.014 timesteps/s, 19.532 Gatom-step/s
111.6% CPU use with 64 MPI tasks x 1 OpenMP threads

MPI task timing breakdown:
Section |  min time  |  avg time  |  max time  |%varavg| %total
---------------------------------------------------------------
Pair    | 0.012902   | 0.01439    | 0.028986   |   2.6 |  0.21
Neigh   | 0.26436    | 0.49237    | 1.1202     |  33.1 |  7.34
Comm    | 2.939      | 3.4542     | 3.7228     |  10.7 | 51.47
Output  | 0.000454   | 0.070383   | 0.071879   |   3.3 |  1.05
Modify  | 2.3224     | 2.6726     | 2.9405     |   8.4 | 39.82
Other   |            | 0.006927   |            |       |  0.10

Nlocal:      2.048e+06 ave 2.04888e+06 max 2.04739e+06 min
Histogram: 5 9 5 16 7 6 12 1 2 1
Nghost:         268173 ave      268538 max      267662 min
Histogram: 2 1 2 10 9 10 8 8 8 6
Neighs:              0 ave           0 max           0 min
Histogram: 64 0 0 0 0 0 0 0 0 0
FullNghs:  1.53543e+08 ave 1.53657e+08 max 1.53467e+08 min
Histogram: 8 6 10 12 4 7 12 3 0 2

Total # of neighbors = 9.826756e+09
Ave neighs/atom = 74.972198
Neighbor list builds = 50
Dangerous builds not checked
Total wall time: 0:00:09
