LAMMPS (4 Feb 2025 - Development - patch_4Feb2025-76-gf0bc9ddcc9-modified)
KOKKOS mode with Kokkos version 4.5.1 is enabled (../kokkos.cpp:72)
  will use up to 1 GPU(s) per node
package kokkos
package kokkos neigh full neigh/qeq full newton off comm device pair/only off neigh/transpose on
# 3d Lennard-Jones melt

units		lj
atom_style	atomic

lattice		fcc 0.8442
Lattice spacing in x,y,z = 1.6795962 1.6795962 1.6795962
region		box block 0 $x 0 $y 0 $z
region		box block 0 320 0 $y 0 $z
region		box block 0 320 0 320 0 $z
region		box block 0 320 0 320 0 320
create_box	1 box
Created orthogonal box = (0 0 0) to (537.47078 537.47078 537.47078)
  2 by 4 by 4 MPI processor grid
create_atoms	1 box
Created 131072000 atoms
  using lattice units in orthogonal box = (0 0 0) to (537.47078 537.47078 537.47078)
  create_atoms CPU = 0.922 seconds
mass		1 1.0

velocity	all create 1.44 87287 loop geom

pair_style	lj/cut 2.5
pair_coeff	1 1 1.0 1.0 2.5

neighbor	0.3 bin
neigh_modify	delay 0 every 20 check no

fix		1 all nve
thermo          10000

run		$t
run		1000
Generated 0 of 0 mixed pair_coeff terms from geometric mixing rule
Neighbor list info ...
  update: every = 20 steps, delay = 0 steps, check = no
  max neighbors/atom: 2000, page size: 100000
  master list distance cutoff = 2.8
  ghost atom cutoff = 2.8
  binsize = 2.8, bins = 192 192 192
  1 neighbor lists, perpetual/occasional/extra = 1 0 0
  (1) pair lj/cut/kk, perpetual
      attributes: full, newton off, kokkos_device
      pair build: full/bin/kk/device
      stencil: full/bin/3d
      bin: kk/device
Per MPI rank memory allocation (min/avg/max) = 608.2 | 611 | 613.1 Mbytes
   Step          Temp          E_pair         E_mol          TotEng         Press     
         0   1.44          -6.7733681      0             -4.6133681     -5.0196693    
      1000   0.70384886    -5.6762335      0             -4.6204602      0.70430956   
Loop time of 17.2301 on 32 procs for 1000 steps with 131072000 atoms

Performance: 25072.366 tau/day, 58.038 timesteps/s, 7.607 Gatom-step/s
101.9% CPU use with 32 MPI tasks x 1 OpenMP threads

MPI task timing breakdown:
Section |  min time  |  avg time  |  max time  |%varavg| %total
---------------------------------------------------------------
Pair    | 0.016507   | 0.028074   | 0.040124   |   3.8 |  0.16
Neigh   | 0.5471     | 1.433      | 4.1608     |  78.3 |  8.32
Comm    | 6.297      | 9.0574     | 10.158     |  32.5 | 52.57
Output  | 0.00049156 | 0.0067954  | 0.0079397  |   1.5 |  0.04
Modify  | 6.461      | 6.6888     | 6.9149     |   4.5 | 38.82
Other   |            | 0.01598    |            |       |  0.09

Nlocal:      4.096e+06 ave 4.09706e+06 max 4.09506e+06 min
Histogram: 2 0 3 5 12 3 3 2 0 2
Nghost:         443239 ave      443728 max      442831 min
Histogram: 3 2 4 4 5 4 5 2 1 2
Neighs:              0 ave           0 max           0 min
Histogram: 32 0 0 0 0 0 0 0 0 0
FullNghs:  3.07086e+08 ave  3.0722e+08 max 3.06961e+08 min
Histogram: 2 1 3 5 7 7 1 3 2 1

Total # of neighbors = 9.826756e+09
Ave neighs/atom = 74.972199
Neighbor list builds = 50
Dangerous builds not checked
Total wall time: 0:00:20
