LAMMPS (4 Feb 2025 - Development - patch_4Feb2025-76-gf0bc9ddcc9-modified)
KOKKOS mode with Kokkos version 4.5.1 is enabled (../kokkos.cpp:72)
  will use up to 1 GPU(s) per node
package kokkos
package kokkos neigh full neigh/qeq full newton off comm device pair/only off neigh/transpose on
# 3d Lennard-Jones melt

units		lj
atom_style	atomic

lattice		fcc 0.8442
Lattice spacing in x,y,z = 1.6795962 1.6795962 1.6795962
region		box block 0 $x 0 $y 0 $z
region		box block 0 1280 0 $y 0 $z
region		box block 0 1280 0 1280 0 $z
region		box block 0 1280 0 1280 0 1280
create_box	1 box
Created orthogonal box = (0 0 0) to (2149.8831 2149.8831 2149.8831)
  16 by 16 by 16 MPI processor grid
create_atoms	1 box
Created 8388608000 atoms
  using lattice units in orthogonal box = (0 0 0) to (2149.8831 2149.8831 2149.8831)
  create_atoms CPU = 0.448 seconds
mass		1 1.0

velocity	all create 1.44 87287 loop geom

pair_style	lj/cut 2.5
pair_coeff	1 1 1.0 1.0 2.5

neighbor	0.3 bin
neigh_modify	delay 0 every 20 check no

fix		1 all nve
thermo          10000

run		$t
run		1000
Generated 0 of 0 mixed pair_coeff terms from geometric mixing rule
Neighbor list info ...
  update: every = 20 steps, delay = 0 steps, check = no
  max neighbors/atom: 2000, page size: 100000
  master list distance cutoff = 2.8
  ghost atom cutoff = 2.8
  binsize = 2.8, bins = 768 768 768
  1 neighbor lists, perpetual/occasional/extra = 1 0 0
  (1) pair lj/cut/kk, perpetual
      attributes: full, newton off, kokkos_device
      pair build: full/bin/kk/device
      stencil: full/bin/3d
      bin: kk/device
Per MPI rank memory allocation (min/avg/max) = 308.1 | 310 | 312.5 Mbytes
   Step          Temp          E_pair         E_mol          TotEng         Press     
         0   1.44          -6.7733681      0             -4.6133681     -5.0196693    
      1000   0.70385953    -5.6762508      0             -4.6204615      0.7042378    
Loop time of 7.85985 on 4096 procs for 1000 steps with 8388608000 atoms

Performance: 54962.885 tau/day, 127.229 timesteps/s, 1067.273 Gatom-step/s
110.6% CPU use with 4096 MPI tasks x 1 OpenMP threads

MPI task timing breakdown:
Section |  min time  |  avg time  |  max time  |%varavg| %total
---------------------------------------------------------------
Pair    | 0.012712   | 0.014161   | 0.032843   |   1.5 |  0.18
Neigh   | 0.26527    | 0.53548    | 1.8568     |  36.5 |  6.81
Comm    | 3.3301     | 4.5219     | 5.0993     |  12.0 | 57.53
Output  | 0.00059693 | 0.084228   | 0.089221   |   4.0 |  1.07
Modify  | 2.2106     | 2.6971     | 3.1038     |   8.1 | 34.31
Other   |            | 0.006995   |            |       |  0.09

Nlocal:      2.048e+06 ave 2.04918e+06 max 2.04669e+06 min
Histogram: 1 38 179 503 1007 1159 795 313 90 11
Nghost:         268185 ave      268880 max      267450 min
Histogram: 9 54 209 619 1010 1059 711 315 90 20
Neighs:              0 ave           0 max           0 min
Histogram: 4096 0 0 0 0 0 0 0 0 0
FullNghs:  1.53543e+08 ave   1.537e+08 max 1.53375e+08 min
Histogram: 6 48 196 563 1030 1120 737 305 80 11

Total # of neighbors = 6.2891231e+11
Ave neighs/atom = 74.97219
Neighbor list builds = 50
Dangerous builds not checked
Total wall time: 0:00:11
