LAMMPS (4 Feb 2025 - Development - patch_4Feb2025-76-gf0bc9ddcc9-modified)
KOKKOS mode with Kokkos version 4.5.1 is enabled (../kokkos.cpp:72)
  will use up to 1 GPU(s) per node
package kokkos
package kokkos neigh full neigh/qeq full newton off comm device pair/only off neigh/transpose on
# 3d Lennard-Jones melt

units		lj
atom_style	atomic

lattice		fcc 0.8442
Lattice spacing in x,y,z = 1.6795962 1.6795962 1.6795962
region		box block 0 $x 0 $y 0 $z
region		box block 0 160 0 $y 0 $z
region		box block 0 160 0 320 0 $z
region		box block 0 160 0 320 0 320
create_box	1 box
Created orthogonal box = (0 0 0) to (268.73539 537.47078 537.47078)
  2 by 8 by 8 MPI processor grid
create_atoms	1 box
Created 65536000 atoms
  using lattice units in orthogonal box = (0 0 0) to (268.73539 537.47078 537.47078)
  create_atoms CPU = 0.327 seconds
mass		1 1.0

velocity	all create 1.44 87287 loop geom

pair_style	lj/cut 2.5
pair_coeff	1 1 1.0 1.0 2.5

neighbor	0.3 bin
neigh_modify	delay 0 every 20 check no

fix		1 all nve
thermo          10000

run		$t
run		1000
Generated 0 of 0 mixed pair_coeff terms from geometric mixing rule
Neighbor list info ...
  update: every = 20 steps, delay = 0 steps, check = no
  max neighbors/atom: 2000, page size: 100000
  master list distance cutoff = 2.8
  ghost atom cutoff = 2.8
  binsize = 2.8, bins = 96 192 192
  1 neighbor lists, perpetual/occasional/extra = 1 0 0
  (1) pair lj/cut/kk, perpetual
      attributes: full, newton off, kokkos_device
      pair build: full/bin/kk/device
      stencil: full/bin/3d
      bin: kk/device
Per MPI rank memory allocation (min/avg/max) = 84.84 | 85.74 | 86.27 Mbytes
   Step          Temp          E_pair         E_mol          TotEng         Press     
         0   1.44          -6.7733681      0             -4.6133681     -5.0196693    
      1000   0.70379707    -5.6761512      0             -4.6204556      0.70456826   
Loop time of 2.9236 on 128 procs for 1000 steps with 65536000 atoms

Performance: 147763.278 tau/day, 342.045 timesteps/s, 22.416 Gatom-step/s
122.3% CPU use with 128 MPI tasks x 1 OpenMP threads

MPI task timing breakdown:
Section |  min time  |  avg time  |  max time  |%varavg| %total
---------------------------------------------------------------
Pair    | 0.010608   | 0.022559   | 0.032555   |   5.1 |  0.77
Neigh   | 0.070785   | 0.16714    | 0.45342    |  21.7 |  5.72
Comm    | 1.7177     | 2.0052     | 2.1578     |   6.8 | 68.59
Output  | 0.00049672 | 0.026965   | 0.027983   |   2.2 |  0.92
Modify  | 0.63829    | 0.69858    | 0.93915    |   4.6 | 23.89
Other   |            | 0.003187   |            |       |  0.11

Nlocal:         512000 ave      512425 max      511547 min
Histogram: 3 6 12 16 15 28 23 17 5 3
Nghost:         114516 ave      114762 max      114149 min
Histogram: 3 2 2 9 24 26 26 13 9 14
Neighs:              0 ave           0 max           0 min
Histogram: 128 0 0 0 0 0 0 0 0 0
FullNghs:  3.83862e+07 ave 3.84494e+07 max 3.83275e+07 min
Histogram: 3 6 15 15 23 31 24 7 2 2

Total # of neighbors = 4.9134298e+09
Ave neighs/atom = 74.972989
Neighbor list builds = 50
Dangerous builds not checked
Total wall time: 0:00:04
