LAMMPS (4 Feb 2025 - Development - patch_4Feb2025-76-gf0bc9ddcc9-modified)
KOKKOS mode with Kokkos version 4.5.1 is enabled (../kokkos.cpp:72)
  will use up to 1 GPU(s) per node
package kokkos
package kokkos neigh full neigh/qeq full newton off comm device pair/only off neigh/transpose on
# 3d Lennard-Jones melt

units		lj
atom_style	atomic

lattice		fcc 0.8442
Lattice spacing in x,y,z = 1.6795962 1.6795962 1.6795962
region		box block 0 $x 0 $y 0 $z
region		box block 0 80 0 $y 0 $z
region		box block 0 80 0 80 0 $z
region		box block 0 80 0 80 0 160
create_box	1 box
Created orthogonal box = (0 0 0) to (134.3677 134.3677 268.73539)
  1 by 1 by 4 MPI processor grid
create_atoms	1 box
Created 4096000 atoms
  using lattice units in orthogonal box = (0 0 0) to (134.3677 134.3677 268.73539)
  create_atoms CPU = 0.206 seconds
mass		1 1.0

velocity	all create 1.44 87287 loop geom

pair_style	lj/cut 2.5
pair_coeff	1 1 1.0 1.0 2.5

neighbor	0.3 bin
neigh_modify	delay 0 every 20 check no

fix		1 all nve
thermo          10000

run		$t
run		1000
Generated 0 of 0 mixed pair_coeff terms from geometric mixing rule
Neighbor list info ...
  update: every = 20 steps, delay = 0 steps, check = no
  max neighbors/atom: 2000, page size: 100000
  master list distance cutoff = 2.8
  ghost atom cutoff = 2.8
  binsize = 2.8, bins = 48 48 96
  1 neighbor lists, perpetual/occasional/extra = 1 0 0
  (1) pair lj/cut/kk, perpetual
      attributes: full, newton off, kokkos_device
      pair build: full/bin/kk/device
      stencil: full/bin/3d
      bin: kk/device
Per MPI rank memory allocation (min/avg/max) = 165 | 166.4 | 167.3 Mbytes
   Step          Temp          E_pair         E_mol          TotEng         Press     
         0   1.44          -6.7733681      0             -4.6133686     -5.0196696    
      1000   0.70377622    -5.6761254      0             -4.6204614      0.7040789    
Loop time of 2.20147 on 4 procs for 1000 steps with 4096000 atoms

Performance: 196232.652 tau/day, 454.242 timesteps/s, 1.861 Gatom-step/s
115.6% CPU use with 4 MPI tasks x 1 OpenMP threads

MPI task timing breakdown:
Section |  min time  |  avg time  |  max time  |%varavg| %total
---------------------------------------------------------------
Pair    | 0.011655   | 0.012004   | 0.012367   |   0.3 |  0.55
Neigh   | 0.13363    | 0.25343    | 0.37435    |  21.2 | 11.51
Comm    | 0.47367    | 0.61019    | 0.75862    |  16.2 | 27.72
Output  | 0.00020458 | 0.0013107  | 0.0017487  |   1.8 |  0.06
Modify  | 1.2919     | 1.3205     | 1.3435     |   1.8 | 59.98
Other   |            | 0.004079   |            |       |  0.19

Nlocal:      1.024e+06 ave  1.0242e+06 max  1.0236e+06 min
Histogram: 1 0 0 0 0 0 0 1 0 2
Nghost:         180586 ave      180762 max      180233 min
Histogram: 1 0 0 0 0 0 0 1 1 1
Neighs:              0 ave           0 max           0 min
Histogram: 4 0 0 0 0 0 0 0 0 0
FullNghs:  7.67707e+07 ave 7.68027e+07 max  7.6712e+07 min
Histogram: 1 0 0 0 0 0 0 1 1 1

Total # of neighbors = 3.0708272e+08
Ave neighs/atom = 74.971368
Neighbor list builds = 50
Dangerous builds not checked
Total wall time: 0:00:03
