LAMMPS (4 Feb 2025 - Development - patch_4Feb2025-76-gf0bc9ddcc9-modified)
KOKKOS mode with Kokkos version 4.5.1 is enabled (../kokkos.cpp:72)
  will use up to 1 GPU(s) per node
package kokkos
package kokkos neigh full neigh/qeq full newton off comm device pair/only off neigh/transpose on
# 3d Lennard-Jones melt

units		lj
atom_style	atomic

lattice		fcc 0.8442
Lattice spacing in x,y,z = 1.6795962 1.6795962 1.6795962
region		box block 0 $x 0 $y 0 $z
region		box block 0 160 0 $y 0 $z
region		box block 0 160 0 160 0 $z
region		box block 0 160 0 160 0 320
create_box	1 box
Created orthogonal box = (0 0 0) to (268.73539 268.73539 537.47078)
  4 by 4 by 8 MPI processor grid
create_atoms	1 box
Created 32768000 atoms
  using lattice units in orthogonal box = (0 0 0) to (268.73539 268.73539 537.47078)
  create_atoms CPU = 0.062 seconds
mass		1 1.0

velocity	all create 1.44 87287 loop geom

pair_style	lj/cut 2.5
pair_coeff	1 1 1.0 1.0 2.5

neighbor	0.3 bin
neigh_modify	delay 0 every 20 check no

fix		1 all nve
thermo          10000

run		$t
run		1000
Generated 0 of 0 mixed pair_coeff terms from geometric mixing rule
Neighbor list info ...
  update: every = 20 steps, delay = 0 steps, check = no
  max neighbors/atom: 2000, page size: 100000
  master list distance cutoff = 2.8
  ghost atom cutoff = 2.8
  binsize = 2.8, bins = 96 96 192
  1 neighbor lists, perpetual/occasional/extra = 1 0 0
  (1) pair lj/cut/kk, perpetual
      attributes: full, newton off, kokkos_device
      pair build: full/bin/kk/device
      stencil: full/bin/3d
      bin: kk/device
Per MPI rank memory allocation (min/avg/max) = 44.24 | 44.97 | 45.34 Mbytes
   Step          Temp          E_pair         E_mol          TotEng         Press     
         0   1.44          -6.7733681      0             -4.6133681     -5.0196693    
      1000   0.70381028    -5.6761714      0             -4.620456       0.70457076   
Loop time of 1.09551 on 128 procs for 1000 steps with 32768000 atoms

Performance: 394337.752 tau/day, 912.819 timesteps/s, 29.911 Gatom-step/s
148.9% CPU use with 128 MPI tasks x 1 OpenMP threads

MPI task timing breakdown:
Section |  min time  |  avg time  |  max time  |%varavg| %total
---------------------------------------------------------------
Pair    | 0.0097242  | 0.010457   | 0.024814   |   1.8 |  0.95
Neigh   | 0.039346   | 0.065343   | 0.13726    |   8.5 |  5.96
Comm    | 0.58376    | 0.65168    | 0.69248    |   3.3 | 59.49
Output  | 0.00032845 | 0.0064411  | 0.006727   |   1.2 |  0.59
Modify  | 0.34096    | 0.36002    | 0.37957    |   1.5 | 32.86
Other   |            | 0.001568   |            |       |  0.14

Nlocal:         256000 ave      256322 max      255673 min
Histogram: 7 7 8 13 33 26 7 9 10 8
Nghost:        69838.4 ave       70045 max       69649 min
Histogram: 6 10 16 15 21 24 13 10 8 5
Neighs:              0 ave           0 max           0 min
Histogram: 128 0 0 0 0 0 0 0 0 0
FullNghs:  1.91932e+07 ave 1.92412e+07 max 1.91505e+07 min
Histogram: 8 3 14 20 33 18 10 11 7 4

Total # of neighbors = 2.4567301e+09
Ave neighs/atom = 74.973453
Neighbor list builds = 50
Dangerous builds not checked
Total wall time: 0:00:01
