LAMMPS (4 Feb 2025 - Development - patch_4Feb2025-76-gf0bc9ddcc9-modified)
KOKKOS mode with Kokkos version 4.5.1 is enabled (../kokkos.cpp:72)
  will use up to 1 GPU(s) per node
package kokkos
package kokkos neigh full neigh/qeq full newton off comm device pair/only off neigh/transpose on
# 3d Lennard-Jones melt

units		lj
atom_style	atomic

lattice		fcc 0.8442
Lattice spacing in x,y,z = 1.6795962 1.6795962 1.6795962
region		box block 0 $x 0 $y 0 $z
region		box block 0 320 0 $y 0 $z
region		box block 0 320 0 320 0 $z
region		box block 0 320 0 320 0 640
create_box	1 box
Created orthogonal box = (0 0 0) to (537.47078 537.47078 1074.9416)
  8 by 8 by 16 MPI processor grid
create_atoms	1 box
Created 262144000 atoms
  using lattice units in orthogonal box = (0 0 0) to (537.47078 537.47078 1074.9416)
  create_atoms CPU = 0.070 seconds
mass		1 1.0

velocity	all create 1.44 87287 loop geom

pair_style	lj/cut 2.5
pair_coeff	1 1 1.0 1.0 2.5

neighbor	0.3 bin
neigh_modify	delay 0 every 20 check no

fix		1 all nve
thermo          10000

run		$t
run		1000
Generated 0 of 0 mixed pair_coeff terms from geometric mixing rule
Neighbor list info ...
  update: every = 20 steps, delay = 0 steps, check = no
  max neighbors/atom: 2000, page size: 100000
  master list distance cutoff = 2.8
  ghost atom cutoff = 2.8
  binsize = 2.8, bins = 192 192 384
  1 neighbor lists, perpetual/occasional/extra = 1 0 0
  (1) pair lj/cut/kk, perpetual
      attributes: full, newton off, kokkos_device
      pair build: full/bin/kk/device
      stencil: full/bin/3d
      bin: kk/device
Per MPI rank memory allocation (min/avg/max) = 44.25 | 45.01 | 45.45 Mbytes
   Step          Temp          E_pair         E_mol          TotEng         Press     
         0   1.44          -6.7733681      0             -4.6133681     -5.0196693    
      1000   0.70383419    -5.6762124      0             -4.6204611      0.70436869   
Loop time of 1.18763 on 1024 procs for 1000 steps with 262144000 atoms

Performance: 363750.780 tau/day, 842.016 timesteps/s, 220.729 Gatom-step/s
148.1% CPU use with 1024 MPI tasks x 1 OpenMP threads

MPI task timing breakdown:
Section |  min time  |  avg time  |  max time  |%varavg| %total
---------------------------------------------------------------
Pair    | 0.0095417  | 0.011099   | 0.025663   |   2.0 |  0.93
Neigh   | 0.038138   | 0.067865   | 0.14829    |   9.1 |  5.71
Comm    | 0.65804    | 0.74148    | 0.79514    |   3.4 | 62.43
Output  | 0.00047688 | 0.0075882  | 0.0082389  |   1.2 |  0.64
Modify  | 0.3289     | 0.358      | 0.38126    |   1.6 | 30.14
Other   |            | 0.001595   |            |       |  0.13

Nlocal:         256000 ave      256501 max      255389 min
Histogram: 1 8 22 104 238 281 222 122 19 7
Nghost:        69848.5 ave       70154 max       69518 min
Histogram: 7 16 62 135 260 227 181 89 39 8
Neighs:              0 ave           0 max           0 min
Histogram: 1024 0 0 0 0 0 0 0 0 0
FullNghs:  1.91929e+07 ave 1.92556e+07 max 1.91127e+07 min
Histogram: 1 5 27 82 226 284 216 141 33 9

Total # of neighbors = 1.965357e+10
Ave neighs/atom = 74.972421
Neighbor list builds = 50
Dangerous builds not checked
Total wall time: 0:00:02
