LAMMPS (4 Feb 2025 - Development - patch_4Feb2025-76-gf0bc9ddcc9-modified)
KOKKOS mode with Kokkos version 4.5.1 is enabled (../kokkos.cpp:72)
  will use up to 1 GPU(s) per node
package kokkos
package kokkos neigh full neigh/qeq full newton off comm device pair/only off neigh/transpose on
# 3d Lennard-Jones melt

units		lj
atom_style	atomic

lattice		fcc 0.8442
Lattice spacing in x,y,z = 1.6795962 1.6795962 1.6795962
region		box block 0 $x 0 $y 0 $z
region		box block 0 320 0 $y 0 $z
region		box block 0 320 0 640 0 $z
region		box block 0 320 0 640 0 640
create_box	1 box
Created orthogonal box = (0 0 0) to (537.47078 1074.9416 1074.9416)
  4 by 8 by 8 MPI processor grid
create_atoms	1 box
Created 524288000 atoms
  using lattice units in orthogonal box = (0 0 0) to (537.47078 1074.9416 1074.9416)
  create_atoms CPU = 0.464 seconds
mass		1 1.0

velocity	all create 1.44 87287 loop geom

pair_style	lj/cut 2.5
pair_coeff	1 1 1.0 1.0 2.5

neighbor	0.3 bin
neigh_modify	delay 0 every 20 check no

fix		1 all nve
thermo          10000

run		$t
run		1000
Generated 0 of 0 mixed pair_coeff terms from geometric mixing rule
Neighbor list info ...
  update: every = 20 steps, delay = 0 steps, check = no
  max neighbors/atom: 2000, page size: 100000
  master list distance cutoff = 2.8
  ghost atom cutoff = 2.8
  binsize = 2.8, bins = 192 384 384
  1 neighbor lists, perpetual/occasional/extra = 1 0 0
  (1) pair lj/cut/kk, perpetual
      attributes: full, newton off, kokkos_device
      pair build: full/bin/kk/device
      stencil: full/bin/3d
      bin: kk/device
Per MPI rank memory allocation (min/avg/max) = 309 | 310.6 | 312.5 Mbytes
   Step          Temp          E_pair         E_mol          TotEng         Press     
         0   1.44          -6.7733681      0             -4.6133681     -5.0196693    
      1000   0.70384058    -5.6762216      0             -4.6204608      0.70433283   
Loop time of 8.11321 on 256 procs for 1000 steps with 524288000 atoms

Performance: 53246.526 tau/day, 123.256 timesteps/s, 64.622 Gatom-step/s
110.3% CPU use with 256 MPI tasks x 1 OpenMP threads

MPI task timing breakdown:
Section |  min time  |  avg time  |  max time  |%varavg| %total
---------------------------------------------------------------
Pair    | 0.012828   | 0.014389   | 0.028711   |   1.8 |  0.18
Neigh   | 0.26281    | 0.52244    | 1.7005     |  38.9 |  6.44
Comm    | 3.7707     | 4.8032     | 5.2603     |  12.3 | 59.20
Output  | 0.00050828 | 0.0706     | 0.071976   |   2.3 |  0.87
Modify  | 2.2892     | 2.6955     | 3.0482     |   8.9 | 33.22
Other   |            | 0.007058   |            |       |  0.09

Nlocal:      2.048e+06 ave 2.04894e+06 max 2.04718e+06 min
Histogram: 7 13 24 56 55 35 34 16 11 5
Nghost:         268207 ave      268790 max      267549 min
Histogram: 2 3 16 36 60 51 49 24 9 6
Neighs:              0 ave           0 max           0 min
Histogram: 256 0 0 0 0 0 0 0 0 0
FullNghs:  1.53542e+08 ave 1.53677e+08 max 1.53431e+08 min
Histogram: 6 15 31 55 47 43 34 15 8 2

Total # of neighbors = 3.9306862e+10
Ave neighs/atom = 74.971889
Neighbor list builds = 50
Dangerous builds not checked
Total wall time: 0:00:10
