LAMMPS (4 Feb 2025 - Development - patch_4Feb2025-76-gf0bc9ddcc9-modified)
KOKKOS mode with Kokkos version 4.5.1 is enabled (../kokkos.cpp:72)
  will use up to 1 GPU(s) per node
package kokkos
package kokkos neigh full neigh/qeq full newton off comm device pair/only off neigh/transpose on
# 3d Lennard-Jones melt

units		lj
atom_style	atomic

lattice		fcc 0.8442
Lattice spacing in x,y,z = 1.6795962 1.6795962 1.6795962
region		box block 0 $x 0 $y 0 $z
region		box block 0 320 0 $y 0 $z
region		box block 0 320 0 640 0 $z
region		box block 0 320 0 640 0 640
create_box	1 box
Created orthogonal box = (0 0 0) to (537.47078 1074.9416 1074.9416)
  2 by 8 by 8 MPI processor grid
create_atoms	1 box
Created 524288000 atoms
  using lattice units in orthogonal box = (0 0 0) to (537.47078 1074.9416 1074.9416)
  create_atoms CPU = 1.054 seconds
mass		1 1.0

velocity	all create 1.44 87287 loop geom

pair_style	lj/cut 2.5
pair_coeff	1 1 1.0 1.0 2.5

neighbor	0.3 bin
neigh_modify	delay 0 every 20 check no

fix		1 all nve
thermo          10000

run		$t
run		1000
Generated 0 of 0 mixed pair_coeff terms from geometric mixing rule
Neighbor list info ...
  update: every = 20 steps, delay = 0 steps, check = no
  max neighbors/atom: 2000, page size: 100000
  master list distance cutoff = 2.8
  ghost atom cutoff = 2.8
  binsize = 2.8, bins = 192 384 384
  1 neighbor lists, perpetual/occasional/extra = 1 0 0
  (1) pair lj/cut/kk, perpetual
      attributes: full, newton off, kokkos_device
      pair build: full/bin/kk/device
      stencil: full/bin/3d
      bin: kk/device
Per MPI rank memory allocation (min/avg/max) = 606.4 | 610.4 | 613.1 Mbytes
   Step          Temp          E_pair         E_mol          TotEng         Press     
         0   1.44          -6.7733681      0             -4.6133681     -5.0196693    
      1000   0.70384071    -5.6762218      0             -4.6204608      0.70433156   
Loop time of 21.1311 on 128 procs for 1000 steps with 524288000 atoms

Performance: 20443.816 tau/day, 47.324 timesteps/s, 24.811 Gatom-step/s
102.0% CPU use with 128 MPI tasks x 1 OpenMP threads

MPI task timing breakdown:
Section |  min time  |  avg time  |  max time  |%varavg| %total
---------------------------------------------------------------
Pair    | 0.017074   | 0.029024   | 0.041037   |   3.5 |  0.14
Neigh   | 0.5442     | 1.4411     | 4.0268     |  76.0 |  6.82
Comm    | 9.8991     | 12.708     | 14         |  28.8 | 60.14
Output  | 0.00068805 | 0.25325    | 0.25917    |   6.6 |  1.20
Modify  | 6.2734     | 6.6839     | 6.9977     |   7.0 | 31.63
Other   |            | 0.01587    |            |       |  0.08

Nlocal:      4.096e+06 ave 4.09724e+06 max 4.09499e+06 min
Histogram: 7 7 17 23 23 22 14 9 4 2
Nghost:         443305 ave      444107 max      442700 min
Histogram: 4 7 27 20 29 15 13 8 4 1
Neighs:              0 ave           0 max           0 min
Histogram: 128 0 0 0 0 0 0 0 0 0
FullNghs:  3.07085e+08 ave  3.0725e+08 max 3.06948e+08 min
Histogram: 8 6 18 15 31 19 16 9 4 2

Total # of neighbors = 3.9306862e+10
Ave neighs/atom = 74.971889
Neighbor list builds = 50
Dangerous builds not checked
Total wall time: 0:00:24
