LAMMPS (4 Feb 2025 - Development - patch_4Feb2025-76-gf0bc9ddcc9-modified)
KOKKOS mode with Kokkos version 4.5.1 is enabled (../kokkos.cpp:72)
  will use up to 1 GPU(s) per node
package kokkos
package kokkos neigh full neigh/qeq full newton off comm device pair/only off neigh/transpose on
# 3d Lennard-Jones melt

units		lj
atom_style	atomic

lattice		fcc 0.8442
Lattice spacing in x,y,z = 1.6795962 1.6795962 1.6795962
region		box block 0 $x 0 $y 0 $z
region		box block 0 320 0 $y 0 $z
region		box block 0 320 0 640 0 $z
region		box block 0 320 0 640 0 640
create_box	1 box
Created orthogonal box = (0 0 0) to (537.47078 1074.9416 1074.9416)
  4 by 8 by 16 MPI processor grid
create_atoms	1 box
Created 524288000 atoms
  using lattice units in orthogonal box = (0 0 0) to (537.47078 1074.9416 1074.9416)
  create_atoms CPU = 0.223 seconds
mass		1 1.0

velocity	all create 1.44 87287 loop geom

pair_style	lj/cut 2.5
pair_coeff	1 1 1.0 1.0 2.5

neighbor	0.3 bin
neigh_modify	delay 0 every 20 check no

fix		1 all nve
thermo          10000

run		$t
run		1000
Generated 0 of 0 mixed pair_coeff terms from geometric mixing rule
Neighbor list info ...
  update: every = 20 steps, delay = 0 steps, check = no
  max neighbors/atom: 2000, page size: 100000
  master list distance cutoff = 2.8
  ghost atom cutoff = 2.8
  binsize = 2.8, bins = 192 384 384
  1 neighbor lists, perpetual/occasional/extra = 1 0 0
  (1) pair lj/cut/kk, perpetual
      attributes: full, newton off, kokkos_device
      pair build: full/bin/kk/device
      stencil: full/bin/3d
      bin: kk/device
Per MPI rank memory allocation (min/avg/max) = 164 | 165.8 | 167.3 Mbytes
   Step          Temp          E_pair         E_mol          TotEng         Press     
         0   1.44          -6.7733681      0             -4.6133681     -5.0196693    
      1000   0.7038406     -5.6762217      0             -4.6204608      0.70433273   
Loop time of 3.86013 on 512 procs for 1000 steps with 524288000 atoms

Performance: 111913.449 tau/day, 259.059 timesteps/s, 135.821 Gatom-step/s
119.4% CPU use with 512 MPI tasks x 1 OpenMP threads

MPI task timing breakdown:
Section |  min time  |  avg time  |  max time  |%varavg| %total
---------------------------------------------------------------
Pair    | 0.011571   | 0.012527   | 0.014329   |   0.4 |  0.32
Neigh   | 0.13214    | 0.24787    | 0.77363    |  23.9 |  6.42
Comm    | 1.5522     | 2.1289     | 2.4138     |   8.4 | 55.15
Output  | 0.00048769 | 0.031685   | 0.032384   |   1.5 |  0.82
Modify  | 1.2068     | 1.435      | 1.6495     |   6.7 | 37.17
Other   |            | 0.004143   |            |       |  0.11

Nlocal:      1.024e+06 ave 1.02488e+06 max 1.02325e+06 min
Histogram: 8 28 57 85 111 129 57 29 6 2
Nghost:         180647 ave      181174 max      180168 min
Histogram: 7 18 38 103 127 107 68 30 12 2
Neighs:              0 ave           0 max           0 min
Histogram: 512 0 0 0 0 0 0 0 0 0
FullNghs:  7.67712e+07 ave 7.68921e+07 max 7.66665e+07 min
Histogram: 8 21 61 79 112 130 68 24 7 2

Total # of neighbors = 3.9306862e+10
Ave neighs/atom = 74.97189
Neighbor list builds = 50
Dangerous builds not checked
Total wall time: 0:00:05
