LAMMPS (4 Feb 2025 - Development - patch_4Feb2025-76-gf0bc9ddcc9-modified)
KOKKOS mode with Kokkos version 4.5.1 is enabled (../kokkos.cpp:72)
  will use up to 1 GPU(s) per node
package kokkos
package kokkos neigh full neigh/qeq full newton off comm device pair/only off neigh/transpose on
# 3d Lennard-Jones melt

units		lj
atom_style	atomic

lattice		fcc 0.8442
Lattice spacing in x,y,z = 1.6795962 1.6795962 1.6795962
region		box block 0 $x 0 $y 0 $z
region		box block 0 40 0 $y 0 $z
region		box block 0 40 0 40 0 $z
region		box block 0 40 0 40 0 80
create_box	1 box
Created orthogonal box = (0 0 0) to (67.183848 67.183848 134.3677)
  1 by 1 by 4 MPI processor grid
create_atoms	1 box
Created 512000 atoms
  using lattice units in orthogonal box = (0 0 0) to (67.183848 67.183848 134.3677)
  create_atoms CPU = 0.030 seconds
mass		1 1.0

velocity	all create 1.44 87287 loop geom

pair_style	lj/cut 2.5
pair_coeff	1 1 1.0 1.0 2.5

neighbor	0.3 bin
neigh_modify	delay 0 every 20 check no

fix		1 all nve
thermo          10000

run		$t
run		1000
Generated 0 of 0 mixed pair_coeff terms from geometric mixing rule
Neighbor list info ...
  update: every = 20 steps, delay = 0 steps, check = no
  max neighbors/atom: 2000, page size: 100000
  master list distance cutoff = 2.8
  ghost atom cutoff = 2.8
  binsize = 2.8, bins = 24 24 48
  1 neighbor lists, perpetual/occasional/extra = 1 0 0
  (1) pair lj/cut/kk, perpetual
      attributes: full, newton off, kokkos_device
      pair build: full/bin/kk/device
      stencil: full/bin/3d
      bin: kk/device
Per MPI rank memory allocation (min/avg/max) = 25.23 | 25.46 | 25.62 Mbytes
   Step          Temp          E_pair         E_mol          TotEng         Press     
         0   1.44          -6.7733681      0             -4.6133723     -5.0196716    
      1000   0.7038891     -5.6763582      0             -4.6205266      0.70117819   
Loop time of 0.448056 on 4 procs for 1000 steps with 512000 atoms

Performance: 964164.599 tau/day, 2231.862 timesteps/s, 1.143 Gatom-step/s
181.1% CPU use with 4 MPI tasks x 1 OpenMP threads

MPI task timing breakdown:
Section |  min time  |  avg time  |  max time  |%varavg| %total
---------------------------------------------------------------
Pair    | 0.0090593  | 0.009257   | 0.009496   |   0.2 |  2.07
Neigh   | 0.028337   | 0.037422   | 0.042556   |   2.9 |  8.35
Comm    | 0.19788    | 0.20361    | 0.21818    |   1.9 | 45.44
Output  | 0.00014061 | 0.00022449 | 0.00029111 |   0.0 |  0.05
Modify  | 0.19108    | 0.19629    | 0.20044    |   0.8 | 43.81
Other   |            | 0.001256   |            |       |  0.28

Nlocal:         128000 ave      128159 max      127880 min
Histogram: 2 0 0 0 0 0 1 0 0 1
Nghost:        47519.8 ave       47660 max       47396 min
Histogram: 2 0 0 0 0 0 0 0 1 1
Neighs:              0 ave           0 max           0 min
Histogram: 4 0 0 0 0 0 0 0 0 0
FullNghs:  9.59651e+06 ave 9.61681e+06 max   9.582e+06 min
Histogram: 2 0 0 0 0 0 1 0 0 1

Total # of neighbors = 38386032
Ave neighs/atom = 74.972719
Neighbor list builds = 50
Dangerous builds not checked
Total wall time: 0:00:01
