LAMMPS (4 Feb 2025 - Development - patch_4Feb2025-76-gf0bc9ddcc9-modified)
KOKKOS mode with Kokkos version 4.5.1 is enabled (../kokkos.cpp:72)
  will use up to 1 GPU(s) per node
package kokkos
package kokkos neigh full neigh/qeq full newton off comm device pair/only off neigh/transpose on
# 3d Lennard-Jones melt

units		lj
atom_style	atomic

lattice		fcc 0.8442
Lattice spacing in x,y,z = 1.6795962 1.6795962 1.6795962
region		box block 0 $x 0 $y 0 $z
region		box block 0 80 0 $y 0 $z
region		box block 0 80 0 80 0 $z
region		box block 0 80 0 80 0 80
create_box	1 box
Created orthogonal box = (0 0 0) to (134.3677 134.3677 134.3677)
  1 by 2 by 2 MPI processor grid
create_atoms	1 box
Created 2048000 atoms
  using lattice units in orthogonal box = (0 0 0) to (134.3677 134.3677 134.3677)
  create_atoms CPU = 0.111 seconds
mass		1 1.0

velocity	all create 1.44 87287 loop geom

pair_style	lj/cut 2.5
pair_coeff	1 1 1.0 1.0 2.5

neighbor	0.3 bin
neigh_modify	delay 0 every 20 check no

fix		1 all nve
thermo          10000

run		$t
run		1000
Generated 0 of 0 mixed pair_coeff terms from geometric mixing rule
Neighbor list info ...
  update: every = 20 steps, delay = 0 steps, check = no
  max neighbors/atom: 2000, page size: 100000
  master list distance cutoff = 2.8
  ghost atom cutoff = 2.8
  binsize = 2.8, bins = 48 48 48
  1 neighbor lists, perpetual/occasional/extra = 1 0 0
  (1) pair lj/cut/kk, perpetual
      attributes: full, newton off, kokkos_device
      pair build: full/bin/kk/device
      stencil: full/bin/3d
      bin: kk/device
Per MPI rank memory allocation (min/avg/max) = 86.22 | 86.22 | 86.22 Mbytes
   Step          Temp          E_pair         E_mol          TotEng         Press     
         0   1.44          -6.7733681      0             -4.6133691     -5.0196699    
      1000   0.70371602    -5.6760417      0             -4.6204682      0.70352068   
Loop time of 1.67834 on 4 procs for 1000 steps with 2048000 atoms

Performance: 257397.749 tau/day, 595.828 timesteps/s, 1.220 Gatom-step/s
127.3% CPU use with 4 MPI tasks x 1 OpenMP threads

MPI task timing breakdown:
Section |  min time  |  avg time  |  max time  |%varavg| %total
---------------------------------------------------------------
Pair    | 0.020666   | 0.025677   | 0.031579   |   2.7 |  1.53
Neigh   | 0.13002    | 0.22296    | 0.27157    |  11.9 | 13.28
Comm    | 0.74264    | 0.78992    | 0.87574    |   6.0 | 47.07
Output  | 0.00029077 | 0.00034433 | 0.00041454 |   0.0 |  0.02
Modify  | 0.63424    | 0.63607    | 0.63812    |   0.2 | 37.90
Other   |            | 0.003363   |            |       |  0.20

Nlocal:         512000 ave      512175 max      511688 min
Histogram: 1 0 0 0 0 0 0 2 0 1
Nghost:         114500 ave      114603 max      114436 min
Histogram: 1 1 0 1 0 0 0 0 0 1
Neighs:              0 ave           0 max           0 min
Histogram: 4 0 0 0 0 0 0 0 0 0
FullNghs:  3.83874e+07 ave 3.84071e+07 max 3.83461e+07 min
Histogram: 1 0 0 0 0 0 0 1 0 2

Total # of neighbors = 1.5354977e+08
Ave neighs/atom = 74.975472
Neighbor list builds = 50
Dangerous builds not checked
Total wall time: 0:00:02
