LAMMPS (4 Feb 2025 - Development - patch_4Feb2025-76-gf0bc9ddcc9-modified)
KOKKOS mode with Kokkos version 4.5.1 is enabled (../kokkos.cpp:72)
  will use up to 1 GPU(s) per node
package kokkos
package kokkos neigh full neigh/qeq full newton off comm device pair/only off neigh/transpose on
# 3d Lennard-Jones melt

units		lj
atom_style	atomic

lattice		fcc 0.8442
Lattice spacing in x,y,z = 1.6795962 1.6795962 1.6795962
region		box block 0 $x 0 $y 0 $z
region		box block 0 80 0 $y 0 $z
region		box block 0 80 0 160 0 $z
region		box block 0 80 0 160 0 160
create_box	1 box
Created orthogonal box = (0 0 0) to (134.3677 268.73539 268.73539)
  2 by 4 by 8 MPI processor grid
create_atoms	1 box
Created 8192000 atoms
  using lattice units in orthogonal box = (0 0 0) to (134.3677 268.73539 268.73539)
  create_atoms CPU = 0.034 seconds
mass		1 1.0

velocity	all create 1.44 87287 loop geom

pair_style	lj/cut 2.5
pair_coeff	1 1 1.0 1.0 2.5

neighbor	0.3 bin
neigh_modify	delay 0 every 20 check no

fix		1 all nve
thermo          10000

run		$t
run		1000
Generated 0 of 0 mixed pair_coeff terms from geometric mixing rule
Neighbor list info ...
  update: every = 20 steps, delay = 0 steps, check = no
  max neighbors/atom: 2000, page size: 100000
  master list distance cutoff = 2.8
  ghost atom cutoff = 2.8
  binsize = 2.8, bins = 48 96 96
  1 neighbor lists, perpetual/occasional/extra = 1 0 0
  (1) pair lj/cut/kk, perpetual
      attributes: full, newton off, kokkos_device
      pair build: full/bin/kk/device
      stencil: full/bin/3d
      bin: kk/device
Per MPI rank memory allocation (min/avg/max) = 24.97 | 25.38 | 25.62 Mbytes
   Step          Temp          E_pair         E_mol          TotEng         Press     
         0   1.44          -6.7733681      0             -4.6133683     -5.0196694    
      1000   0.70390763    -5.6763221      0             -4.6204607      0.70371468   
Loop time of 0.664104 on 64 procs for 1000 steps with 8192000 atoms

Performance: 650500.101 tau/day, 1505.787 timesteps/s, 12.335 Gatom-step/s
170.1% CPU use with 64 MPI tasks x 1 OpenMP threads

MPI task timing breakdown:
Section |  min time  |  avg time  |  max time  |%varavg| %total
---------------------------------------------------------------
Pair    | 0.0092485  | 0.0098458  | 0.010735   |   0.3 |  1.48
Neigh   | 0.027832   | 0.038386   | 0.079794   |   5.7 |  5.78
Comm    | 0.37222    | 0.41301    | 0.43567    |   2.4 | 62.19
Output  | 0.000288   | 0.0036614  | 0.0038373  |   0.7 |  0.55
Modify  | 0.18526    | 0.19793    | 0.21103    |   1.5 | 29.80
Other   |            | 0.001262   |            |       |  0.19

Nlocal:         128000 ave      128309 max      127681 min
Histogram: 3 4 7 6 8 12 11 8 3 2
Nghost:        47521.8 ave       47724 max       47250 min
Histogram: 1 3 3 3 12 10 15 9 6 2
Neighs:              0 ave           0 max           0 min
Histogram: 64 0 0 0 0 0 0 0 0 0
FullNghs:  9.59657e+06 ave 9.63564e+06 max 9.55628e+06 min
Histogram: 5 2 7 8 4 12 13 8 3 2

Total # of neighbors = 6.1418069e+08
Ave neighs/atom = 74.973229
Neighbor list builds = 50
Dangerous builds not checked
Total wall time: 0:00:01
