LAMMPS (4 Feb 2025 - Development - patch_4Feb2025-76-gf0bc9ddcc9-modified)
KOKKOS mode with Kokkos version 4.5.1 is enabled (../kokkos.cpp:72)
  will use up to 1 GPU(s) per node
package kokkos
package kokkos neigh full neigh/qeq full newton off comm device pair/only off neigh/transpose on
# 3d Lennard-Jones melt

units		lj
atom_style	atomic

lattice		fcc 0.8442
Lattice spacing in x,y,z = 1.6795962 1.6795962 1.6795962
region		box block 0 $x 0 $y 0 $z
region		box block 0 320 0 $y 0 $z
region		box block 0 320 0 640 0 $z
region		box block 0 320 0 640 0 640
create_box	1 box
Created orthogonal box = (0 0 0) to (537.47078 1074.9416 1074.9416)
  8 by 16 by 32 MPI processor grid
create_atoms	1 box
Created 524288000 atoms
  using lattice units in orthogonal box = (0 0 0) to (537.47078 1074.9416 1074.9416)
  create_atoms CPU = 0.032 seconds
mass		1 1.0

velocity	all create 1.44 87287 loop geom

pair_style	lj/cut 2.5
pair_coeff	1 1 1.0 1.0 2.5

neighbor	0.3 bin
neigh_modify	delay 0 every 20 check no

fix		1 all nve
thermo          10000

run		$t
run		1000
Generated 0 of 0 mixed pair_coeff terms from geometric mixing rule
Neighbor list info ...
  update: every = 20 steps, delay = 0 steps, check = no
  max neighbors/atom: 2000, page size: 100000
  master list distance cutoff = 2.8
  ghost atom cutoff = 2.8
  binsize = 2.8, bins = 192 384 384
  1 neighbor lists, perpetual/occasional/extra = 1 0 0
  (1) pair lj/cut/kk, perpetual
      attributes: full, newton off, kokkos_device
      pair build: full/bin/kk/device
      stencil: full/bin/3d
      bin: kk/device
Per MPI rank memory allocation (min/avg/max) = 24.99 | 25.28 | 25.75 Mbytes
   Step          Temp          E_pair         E_mol          TotEng         Press     
         0   1.44          -6.7733681      0             -4.6133681     -5.0196693    
      1000   0.70384074    -5.6762219      0             -4.6204608      0.70433138   
Loop time of 0.765516 on 4096 procs for 1000 steps with 524288000 atoms

Performance: 564325.305 tau/day, 1306.309 timesteps/s, 684.882 Gatom-step/s
165.4% CPU use with 4096 MPI tasks x 1 OpenMP threads

MPI task timing breakdown:
Section |  min time  |  avg time  |  max time  |%varavg| %total
---------------------------------------------------------------
Pair    | 0.009169   | 0.0098804  | 0.011659   |   0.3 |  1.29
Neigh   | 0.026369   | 0.042019   | 0.11266    |   7.0 |  5.49
Comm    | 0.43003    | 0.50965    | 0.5398     |   2.6 | 66.58
Output  | 0.00045205 | 0.0050725  | 0.0053709  |   0.8 |  0.66
Modify  | 0.18135    | 0.19761    | 0.21219    |   1.5 | 25.81
Other   |            | 0.001293   |            |       |  0.17

Nlocal:         128000 ave      128426 max      127596 min
Histogram: 16 78 303 736 1076 999 600 209 71 8
Nghost:        47517.1 ave       47817 max       47197 min
Histogram: 6 38 172 560 1081 1141 729 284 72 13
Neighs:              0 ave           0 max           0 min
Histogram: 4096 0 0 0 0 0 0 0 0 0
FullNghs:   9.5964e+06 ave 9.65118e+06 max 9.54411e+06 min
Histogram: 20 83 300 752 1037 992 586 246 68 12

Total # of neighbors = 3.9306862e+10
Ave neighs/atom = 74.971889
Neighbor list builds = 50
Dangerous builds not checked
Total wall time: 0:00:02
