LAMMPS (4 Feb 2025 - Development - patch_4Feb2025-76-gf0bc9ddcc9-modified)
KOKKOS mode with Kokkos version 4.5.1 is enabled (../kokkos.cpp:72)
  will use up to 1 GPU(s) per node
package kokkos
package kokkos neigh full neigh/qeq full newton off comm device pair/only off neigh/transpose on
# 3d Lennard-Jones melt

units		lj
atom_style	atomic

lattice		fcc 0.8442
Lattice spacing in x,y,z = 1.6795962 1.6795962 1.6795962
region		box block 0 $x 0 $y 0 $z
region		box block 0 160 0 $y 0 $z
region		box block 0 160 0 160 0 $z
region		box block 0 160 0 160 0 160
create_box	1 box
Created orthogonal box = (0 0 0) to (268.73539 268.73539 268.73539)
  4 by 4 by 4 MPI processor grid
create_atoms	1 box
Created 16384000 atoms
  using lattice units in orthogonal box = (0 0 0) to (268.73539 268.73539 268.73539)
  create_atoms CPU = 0.076 seconds
mass		1 1.0

velocity	all create 1.44 87287 loop geom

pair_style	lj/cut 2.5
pair_coeff	1 1 1.0 1.0 2.5

neighbor	0.3 bin
neigh_modify	delay 0 every 20 check no

fix		1 all nve
thermo          10000

run		$t
run		1000
Generated 0 of 0 mixed pair_coeff terms from geometric mixing rule
Neighbor list info ...
  update: every = 20 steps, delay = 0 steps, check = no
  max neighbors/atom: 2000, page size: 100000
  master list distance cutoff = 2.8
  ghost atom cutoff = 2.8
  binsize = 2.8, bins = 96 96 96
  1 neighbor lists, perpetual/occasional/extra = 1 0 0
  (1) pair lj/cut/kk, perpetual
      attributes: full, newton off, kokkos_device
      pair build: full/bin/kk/device
      stencil: full/bin/3d
      bin: kk/device
Per MPI rank memory allocation (min/avg/max) = 44.24 | 44.97 | 45.34 Mbytes
   Step          Temp          E_pair         E_mol          TotEng         Press     
         0   1.44          -6.7733681      0             -4.6133682     -5.0196693    
      1000   0.70395275    -5.6763991      0             -4.62047        0.7036134    
Loop time of 1.10227 on 64 procs for 1000 steps with 16384000 atoms

Performance: 391920.133 tau/day, 907.223 timesteps/s, 14.864 Gatom-step/s
149.5% CPU use with 64 MPI tasks x 1 OpenMP threads

MPI task timing breakdown:
Section |  min time  |  avg time  |  max time  |%varavg| %total
---------------------------------------------------------------
Pair    | 0.0096685  | 0.011086   | 0.025373   |   2.6 |  1.01
Neigh   | 0.039122   | 0.065335   | 0.1268     |   8.7 |  5.93
Comm    | 0.57461    | 0.65749    | 0.70268    |   3.5 | 59.65
Output  | 0.00029777 | 0.0064916  | 0.0069761  |   1.6 |  0.59
Modify  | 0.33645    | 0.36029    | 0.37341    |   1.5 | 32.69
Other   |            | 0.001576   |            |       |  0.14

Nlocal:         256000 ave      256384 max      255754 min
Histogram: 6 7 7 14 11 10 3 2 2 2
Nghost:        69863.2 ave       70059 max       69531 min
Histogram: 1 0 2 5 9 8 14 13 6 6
Neighs:              0 ave           0 max           0 min
Histogram: 64 0 0 0 0 0 0 0 0 0
FullNghs:  1.91924e+07 ave 1.92416e+07 max 1.91597e+07 min
Histogram: 7 4 11 11 12 7 6 4 0 2

Total # of neighbors = 1.2283158e+09
Ave neighs/atom = 74.970446
Neighbor list builds = 50
Dangerous builds not checked
Total wall time: 0:00:02
