LAMMPS (4 Feb 2025 - Development - patch_4Feb2025-76-gf0bc9ddcc9-modified)
KOKKOS mode with Kokkos version 4.5.1 is enabled (../kokkos.cpp:72)
  will use up to 1 GPU(s) per node
package kokkos
package kokkos neigh full neigh/qeq full newton off comm device pair/only off neigh/transpose on
# 3d Lennard-Jones melt

units		lj
atom_style	atomic

lattice		fcc 0.8442
Lattice spacing in x,y,z = 1.6795962 1.6795962 1.6795962
region		box block 0 $x 0 $y 0 $z
region		box block 0 1280 0 $y 0 $z
region		box block 0 1280 0 1280 0 $z
region		box block 0 1280 0 1280 0 1280
create_box	1 box
Created orthogonal box = (0 0 0) to (2149.8831 2149.8831 2149.8831)
  16 by 16 by 32 MPI processor grid
create_atoms	1 box
Created 8388608000 atoms
  using lattice units in orthogonal box = (0 0 0) to (2149.8831 2149.8831 2149.8831)
  create_atoms CPU = 0.228 seconds
mass		1 1.0

velocity	all create 1.44 87287 loop geom

pair_style	lj/cut 2.5
pair_coeff	1 1 1.0 1.0 2.5

neighbor	0.3 bin
neigh_modify	delay 0 every 20 check no

fix		1 all nve
thermo          10000

run		$t
run		1000
Generated 0 of 0 mixed pair_coeff terms from geometric mixing rule
Neighbor list info ...
  update: every = 20 steps, delay = 0 steps, check = no
  max neighbors/atom: 2000, page size: 100000
  master list distance cutoff = 2.8
  ghost atom cutoff = 2.8
  binsize = 2.8, bins = 768 768 768
  1 neighbor lists, perpetual/occasional/extra = 1 0 0
  (1) pair lj/cut/kk, perpetual
      attributes: full, newton off, kokkos_device
      pair build: full/bin/kk/device
      stencil: full/bin/3d
      bin: kk/device
Per MPI rank memory allocation (min/avg/max) = 164 | 165.7 | 167.3 Mbytes
   Step          Temp          E_pair         E_mol          TotEng         Press     
         0   1.44          -6.7733681      0             -4.6133681     -5.0196693    
      1000   0.70385954    -5.6762508      0             -4.6204615      0.7042377    
Loop time of 4.03062 on 8192 procs for 1000 steps with 8388608000 atoms

Performance: 107179.598 tau/day, 248.101 timesteps/s, 2081.221 Gatom-step/s
119.0% CPU use with 8192 MPI tasks x 1 OpenMP threads

MPI task timing breakdown:
Section |  min time  |  avg time  |  max time  |%varavg| %total
---------------------------------------------------------------
Pair    | 0.01145    | 0.012544   | 0.023796   |   0.4 |  0.31
Neigh   | 0.13121    | 0.25262    | 0.75542    |  23.7 |  6.27
Comm    | 1.6944     | 2.2852     | 2.5647     |   8.0 | 56.70
Output  | 0.00063106 | 0.038801   | 0.040225   |   2.4 |  0.96
Modify  | 1.1885     | 1.4373     | 1.6782     |   5.9 | 35.66
Other   |            | 0.004172   |            |       |  0.10

Nlocal:      1.024e+06 ave 1.02514e+06 max 1.02293e+06 min
Histogram: 10 90 458 1459 2487 2291 1061 291 42 3
Nghost:         180638 ave      181288 max      179870 min
Histogram: 3 18 153 752 2033 2729 1765 618 108 13
Neighs:              0 ave           0 max           0 min
Histogram: 8192 0 0 0 0 0 0 0 0 0
FullNghs:  7.67715e+07 ave 7.69196e+07 max 7.66285e+07 min
Histogram: 10 80 428 1365 2397 2386 1128 346 48 4

Total # of neighbors = 6.2891231e+11
Ave neighs/atom = 74.97219
Neighbor list builds = 50
Dangerous builds not checked
Total wall time: 0:00:08
