LAMMPS (4 Feb 2025 - Development - patch_4Feb2025-76-gf0bc9ddcc9-modified)
KOKKOS mode with Kokkos version 4.5.1 is enabled (../kokkos.cpp:72)
  will use up to 1 GPU(s) per node
package kokkos
package kokkos neigh full neigh/qeq full newton off comm device pair/only off neigh/transpose on
# 3d Lennard-Jones melt

units		lj
atom_style	atomic

lattice		fcc 0.8442
Lattice spacing in x,y,z = 1.6795962 1.6795962 1.6795962
region		box block 0 $x 0 $y 0 $z
region		box block 0 640 0 $y 0 $z
region		box block 0 640 0 640 0 $z
region		box block 0 640 0 640 0 1280
create_box	1 box
Created orthogonal box = (0 0 0) to (1074.9416 1074.9416 2149.8831)
  4 by 8 by 16 MPI processor grid
create_atoms	1 box
Created 2097152000 atoms
  using lattice units in orthogonal box = (0 0 0) to (1074.9416 1074.9416 2149.8831)
  create_atoms CPU = 1.163 seconds
mass		1 1.0

velocity	all create 1.44 87287 loop geom

pair_style	lj/cut 2.5
pair_coeff	1 1 1.0 1.0 2.5

neighbor	0.3 bin
neigh_modify	delay 0 every 20 check no

fix		1 all nve
thermo          10000

run		$t
run		1000
Generated 0 of 0 mixed pair_coeff terms from geometric mixing rule
Neighbor list info ...
  update: every = 20 steps, delay = 0 steps, check = no
  max neighbors/atom: 2000, page size: 100000
  master list distance cutoff = 2.8
  ghost atom cutoff = 2.8
  binsize = 2.8, bins = 384 384 768
  1 neighbor lists, perpetual/occasional/extra = 1 0 0
  (1) pair lj/cut/kk, perpetual
      attributes: full, newton off, kokkos_device
      pair build: full/bin/kk/device
      stencil: full/bin/3d
      bin: kk/device
Per MPI rank memory allocation (min/avg/max) = 604.2 | 610.2 | 614.4 Mbytes
   Step          Temp          E_pair         E_mol          TotEng         Press     
         0   1.44          -6.7733681      0             -4.6133681     -5.0196693    
      1000   0.70385742    -5.6762474      0             -4.6204612      0.70421488   
Loop time of 22.1069 on 512 procs for 1000 steps with 2097152000 atoms

Performance: 19541.450 tau/day, 45.235 timesteps/s, 94.864 Gatom-step/s
102.4% CPU use with 512 MPI tasks x 1 OpenMP threads

MPI task timing breakdown:
Section |  min time  |  avg time  |  max time  |%varavg| %total
---------------------------------------------------------------
Pair    | 0.016475   | 0.029576   | 0.041837   |   3.9 |  0.13
Neigh   | 0.54554    | 1.4062     | 4.3141     |  83.3 |  6.36
Comm    | 10.661     | 13.746     | 15.072     |  28.4 | 62.18
Output  | 0.00064567 | 0.25453    | 0.26236    |   7.4 |  1.15
Modify  | 6.1809     | 6.655      | 7.0771     |   6.6 | 30.10
Other   |            | 0.01586    |            |       |  0.07

Nlocal:      4.096e+06 ave 4.09754e+06 max 4.09478e+06 min
Histogram: 7 29 61 112 123 97 48 24 10 1
Nghost:         443271 ave      443934 max      442303 min
Histogram: 1 2 13 45 78 122 131 74 26 20
Neighs:              0 ave           0 max           0 min
Histogram: 512 0 0 0 0 0 0 0 0 0
FullNghs:  3.07086e+08 ave 3.07291e+08 max 3.06908e+08 min
Histogram: 4 21 54 99 127 106 57 34 8 2

Total # of neighbors = 1.5722807e+11
Ave neighs/atom = 74.972187
Neighbor list builds = 50
Dangerous builds not checked
Total wall time: 0:00:26
