LAMMPS (4 Feb 2025 - Development - patch_4Feb2025-76-gf0bc9ddcc9-modified)
KOKKOS mode with Kokkos version 4.5.1 is enabled (../kokkos.cpp:72)
  will use up to 1 GPU(s) per node
package kokkos
package kokkos neigh full neigh/qeq full newton off comm device pair/only off neigh/transpose on
# 3d Lennard-Jones melt

units		lj
atom_style	atomic

lattice		fcc 0.8442
Lattice spacing in x,y,z = 1.6795962 1.6795962 1.6795962
region		box block 0 $x 0 $y 0 $z
region		box block 0 640 0 $y 0 $z
region		box block 0 640 0 1280 0 $z
region		box block 0 640 0 1280 0 1280
create_box	1 box
Created orthogonal box = (0 0 0) to (1074.9416 2149.8831 2149.8831)
  4 by 16 by 16 MPI processor grid
create_atoms	1 box
Created 4194304000 atoms
  using lattice units in orthogonal box = (0 0 0) to (1074.9416 2149.8831 2149.8831)
  create_atoms CPU = 0.843 seconds
mass		1 1.0

velocity	all create 1.44 87287 loop geom

pair_style	lj/cut 2.5
pair_coeff	1 1 1.0 1.0 2.5

neighbor	0.3 bin
neigh_modify	delay 0 every 20 check no

fix		1 all nve
thermo          10000

run		$t
run		1000
Generated 0 of 0 mixed pair_coeff terms from geometric mixing rule
Neighbor list info ...
  update: every = 20 steps, delay = 0 steps, check = no
  max neighbors/atom: 2000, page size: 100000
  master list distance cutoff = 2.8
  ghost atom cutoff = 2.8
  binsize = 2.8, bins = 384 768 768
  1 neighbor lists, perpetual/occasional/extra = 1 0 0
  (1) pair lj/cut/kk, perpetual
      attributes: full, newton off, kokkos_device
      pair build: full/bin/kk/device
      stencil: full/bin/3d
      bin: kk/device
Per MPI rank memory allocation (min/avg/max) = 604.2 | 609.7 | 614.4 Mbytes
   Step          Temp          E_pair         E_mol          TotEng         Press     
         0   1.44          -6.7733681      0             -4.6133681     -5.0196693    
      1000   0.70385266    -5.6762404      0             -4.6204614      0.70428111   
Loop time of 22.535 on 1024 procs for 1000 steps with 4194304000 atoms

Performance: 19170.222 tau/day, 44.376 timesteps/s, 186.124 Gatom-step/s
102.3% CPU use with 1024 MPI tasks x 1 OpenMP threads

MPI task timing breakdown:
Section |  min time  |  avg time  |  max time  |%varavg| %total
---------------------------------------------------------------
Pair    | 0.016746   | 0.029571   | 0.043526   |   4.4 |  0.13
Neigh   | 0.54285    | 1.4057     | 5.4849     |  82.0 |  6.24
Comm    | 9.9495     | 14.103     | 15.398     |  27.5 | 62.58
Output  | 0.00075045 | 0.31339    | 0.3213     |   6.5 |  1.39
Modify  | 6.2065     | 6.6678     | 7.1405     |   5.8 | 29.59
Other   |            | 0.01581    |            |       |  0.07

Nlocal:      4.096e+06 ave 4.09756e+06 max 4.09444e+06 min
Histogram: 2 11 65 173 271 272 141 64 21 4
Nghost:         443283 ave      444166 max      442486 min
Histogram: 16 31 106 180 244 210 148 62 19 8
Neighs:              0 ave           0 max           0 min
Histogram: 1024 0 0 0 0 0 0 0 0 0
FullNghs:  3.07086e+08 ave 3.07289e+08 max 3.06882e+08 min
Histogram: 2 13 71 167 263 267 141 73 19 8

Total # of neighbors = 3.1445614e+11
Ave neighs/atom = 74.972185
Neighbor list builds = 50
Dangerous builds not checked
Total wall time: 0:00:26
