LAMMPS (4 Feb 2025 - Development - patch_4Feb2025-76-gf0bc9ddcc9-modified)
KOKKOS mode with Kokkos version 4.5.1 is enabled (../kokkos.cpp:72)
  will use up to 1 GPU(s) per node
package kokkos
package kokkos neigh full neigh/qeq full newton off comm device pair/only off neigh/transpose on
# 3d Lennard-Jones melt

units		lj
atom_style	atomic

lattice		fcc 0.8442
Lattice spacing in x,y,z = 1.6795962 1.6795962 1.6795962
region		box block 0 $x 0 $y 0 $z
region		box block 0 80 0 $y 0 $z
region		box block 0 80 0 160 0 $z
region		box block 0 80 0 160 0 160
create_box	1 box
Created orthogonal box = (0 0 0) to (134.3677 268.73539 268.73539)
  1 by 1 by 2 MPI processor grid
create_atoms	1 box
Created 8192000 atoms
  using lattice units in orthogonal box = (0 0 0) to (134.3677 268.73539 268.73539)
  create_atoms CPU = 0.867 seconds
mass		1 1.0

velocity	all create 1.44 87287 loop geom

pair_style	lj/cut 2.5
pair_coeff	1 1 1.0 1.0 2.5

neighbor	0.3 bin
neigh_modify	delay 0 every 20 check no

fix		1 all nve
thermo          10000

run		$t
run		1000
Generated 0 of 0 mixed pair_coeff terms from geometric mixing rule
Neighbor list info ...
  update: every = 20 steps, delay = 0 steps, check = no
  max neighbors/atom: 2000, page size: 100000
  master list distance cutoff = 2.8
  ghost atom cutoff = 2.8
  binsize = 2.8, bins = 48 96 96
  1 neighbor lists, perpetual/occasional/extra = 1 0 0
  (1) pair lj/cut/kk, perpetual
      attributes: full, newton off, kokkos_device
      pair build: full/bin/kk/device
      stencil: full/bin/3d
      bin: kk/device
Per MPI rank memory allocation (min/avg/max) = 613.2 | 613.2 | 613.2 Mbytes
   Step          Temp          E_pair         E_mol          TotEng         Press     
         0   1.44          -6.7733681      0             -4.6133683     -5.0196694    
      1000   0.70390764    -5.676322       0             -4.6204607      0.7037147    
Loop time of 9.53492 on 2 procs for 1000 steps with 8192000 atoms

Performance: 45307.158 tau/day, 104.878 timesteps/s, 859.158 Matom-step/s
89.6% CPU use with 2 MPI tasks x 1 OpenMP threads

MPI task timing breakdown:
Section |  min time  |  avg time  |  max time  |%varavg| %total
---------------------------------------------------------------
Pair    | 0.027564   | 0.028465   | 0.029365   |   0.5 |  0.30
Neigh   | 1.2786     | 2.1796     | 3.0807     |  61.0 | 22.86
Comm    | 1.544      | 2.4555     | 3.367      |  58.2 | 25.75
Output  | 0.00033784 | 0.00040706 | 0.00047628 |   0.0 |  0.00
Modify  | 4.8449     | 4.8546     | 4.8643     |   0.4 | 50.91
Other   |            | 0.01635    |            |       |  0.17

Nlocal:      4.096e+06 ave 4.09615e+06 max 4.09585e+06 min
Histogram: 1 0 0 0 0 0 0 0 0 1
Nghost:         443346 ave      443370 max      443321 min
Histogram: 1 0 0 0 0 0 0 0 0 1
Neighs:              0 ave           0 max           0 min
Histogram: 2 0 0 0 0 0 0 0 0 0
FullNghs:   3.0709e+08 ave  3.0711e+08 max 3.07071e+08 min
Histogram: 1 0 0 0 0 0 0 0 0 1

Total # of neighbors = 6.1418069e+08
Ave neighs/atom = 74.973229
Neighbor list builds = 50
Dangerous builds not checked
Total wall time: 0:00:12
