LAMMPS (4 Feb 2025 - Development - patch_4Feb2025-76-gf0bc9ddcc9-modified)
KOKKOS mode with Kokkos version 4.5.1 is enabled (../kokkos.cpp:72)
  will use up to 1 GPU(s) per node
package kokkos
package kokkos neigh full neigh/qeq full newton off comm device pair/only off neigh/transpose on
# 3d Lennard-Jones melt

units		lj
atom_style	atomic

lattice		fcc 0.8442
Lattice spacing in x,y,z = 1.6795962 1.6795962 1.6795962
region		box block 0 $x 0 $y 0 $z
region		box block 0 160 0 $y 0 $z
region		box block 0 160 0 160 0 $z
region		box block 0 160 0 160 0 160
create_box	1 box
Created orthogonal box = (0 0 0) to (268.73539 268.73539 268.73539)
  2 by 2 by 4 MPI processor grid
create_atoms	1 box
Created 16384000 atoms
  using lattice units in orthogonal box = (0 0 0) to (268.73539 268.73539 268.73539)
  create_atoms CPU = 0.215 seconds
mass		1 1.0

velocity	all create 1.44 87287 loop geom

pair_style	lj/cut 2.5
pair_coeff	1 1 1.0 1.0 2.5

neighbor	0.3 bin
neigh_modify	delay 0 every 20 check no

fix		1 all nve
thermo          10000

run		$t
run		1000
Generated 0 of 0 mixed pair_coeff terms from geometric mixing rule
Neighbor list info ...
  update: every = 20 steps, delay = 0 steps, check = no
  max neighbors/atom: 2000, page size: 100000
  master list distance cutoff = 2.8
  ghost atom cutoff = 2.8
  binsize = 2.8, bins = 96 96 96
  1 neighbor lists, perpetual/occasional/extra = 1 0 0
  (1) pair lj/cut/kk, perpetual
      attributes: full, newton off, kokkos_device
      pair build: full/bin/kk/device
      stencil: full/bin/3d
      bin: kk/device
Per MPI rank memory allocation (min/avg/max) = 165 | 166.4 | 167.3 Mbytes
   Step          Temp          E_pair         E_mol          TotEng         Press     
         0   1.44          -6.7733681      0             -4.6133682     -5.0196693    
      1000   0.70395274    -5.6763991      0             -4.62047        0.70361361   
Loop time of 3.17753 on 16 procs for 1000 steps with 16384000 atoms

Performance: 135954.835 tau/day, 314.710 timesteps/s, 5.156 Gatom-step/s
117.3% CPU use with 16 MPI tasks x 1 OpenMP threads

MPI task timing breakdown:
Section |  min time  |  avg time  |  max time  |%varavg| %total
---------------------------------------------------------------
Pair    | 0.011867   | 0.012447   | 0.013118   |   0.3 |  0.39
Neigh   | 0.13014    | 0.26592    | 0.43295    |  21.1 |  8.37
Comm    | 1.3129     | 1.5037     | 1.7025     |  10.5 | 47.32
Output  | 0.00025941 | 0.00065615 | 0.00095928 |   0.0 |  0.02
Modify  | 1.328      | 1.3907     | 1.4385     |   2.5 | 43.77
Other   |            | 0.004099   |            |       |  0.13

Nlocal:      1.024e+06 ave 1.02433e+06 max 1.02365e+06 min
Histogram: 1 2 1 1 4 2 1 0 0 4
Nghost:         180681 ave      180947 max      180353 min
Histogram: 1 2 2 1 0 1 4 1 1 3
Neighs:              0 ave           0 max           0 min
Histogram: 16 0 0 0 0 0 0 0 0 0
FullNghs:  7.67697e+07 ave 7.68181e+07 max  7.6719e+07 min
Histogram: 1 1 1 2 5 1 1 0 2 2

Total # of neighbors = 1.2283158e+09
Ave neighs/atom = 74.970445
Neighbor list builds = 50
Dangerous builds not checked
Total wall time: 0:00:04
