LAMMPS (4 Feb 2025 - Development - patch_4Feb2025-76-gf0bc9ddcc9-modified)
KOKKOS mode with Kokkos version 4.5.1 is enabled (../kokkos.cpp:72)
  will use up to 1 GPU(s) per node
package kokkos
package kokkos neigh full neigh/qeq full newton off comm device pair/only off neigh/transpose on
# 3d Lennard-Jones melt

units		lj
atom_style	atomic

lattice		fcc 0.8442
Lattice spacing in x,y,z = 1.6795962 1.6795962 1.6795962
region		box block 0 $x 0 $y 0 $z
region		box block 0 320 0 $y 0 $z
region		box block 0 320 0 320 0 $z
region		box block 0 320 0 320 0 320
create_box	1 box
Created orthogonal box = (0 0 0) to (537.47078 537.47078 537.47078)
  8 by 8 by 8 MPI processor grid
create_atoms	1 box
Created 131072000 atoms
  using lattice units in orthogonal box = (0 0 0) to (537.47078 537.47078 537.47078)
  create_atoms CPU = 0.065 seconds
mass		1 1.0

velocity	all create 1.44 87287 loop geom

pair_style	lj/cut 2.5
pair_coeff	1 1 1.0 1.0 2.5

neighbor	0.3 bin
neigh_modify	delay 0 every 20 check no

fix		1 all nve
thermo          10000

run		$t
run		1000
Generated 0 of 0 mixed pair_coeff terms from geometric mixing rule
Neighbor list info ...
  update: every = 20 steps, delay = 0 steps, check = no
  max neighbors/atom: 2000, page size: 100000
  master list distance cutoff = 2.8
  ghost atom cutoff = 2.8
  binsize = 2.8, bins = 192 192 192
  1 neighbor lists, perpetual/occasional/extra = 1 0 0
  (1) pair lj/cut/kk, perpetual
      attributes: full, newton off, kokkos_device
      pair build: full/bin/kk/device
      stencil: full/bin/3d
      bin: kk/device
Per MPI rank memory allocation (min/avg/max) = 44.24 | 44.98 | 45.45 Mbytes
   Step          Temp          E_pair         E_mol          TotEng         Press     
         0   1.44          -6.7733681      0             -4.6133681     -5.0196693    
      1000   0.70384883    -5.6762335      0             -4.6204602      0.7043097    
Loop time of 1.14 on 512 procs for 1000 steps with 131072000 atoms

Performance: 378946.073 tau/day, 877.190 timesteps/s, 114.975 Gatom-step/s
148.8% CPU use with 512 MPI tasks x 1 OpenMP threads

MPI task timing breakdown:
Section |  min time  |  avg time  |  max time  |%varavg| %total
---------------------------------------------------------------
Pair    | 0.0095708  | 0.010929   | 0.025232   |   1.9 |  0.96
Neigh   | 0.03805    | 0.06778    | 0.15186    |   9.2 |  5.95
Comm    | 0.59503    | 0.69255    | 0.74216    |   3.6 | 60.75
Output  | 0.00045048 | 0.0079281  | 0.0089962  |   1.2 |  0.70
Modify  | 0.33473    | 0.35922    | 0.38042    |   1.6 | 31.51
Other   |            | 0.001587   |            |       |  0.14

Nlocal:         256000 ave      256430 max      255521 min
Histogram: 1 12 27 71 120 115 87 46 28 5
Nghost:        69849.7 ave       70146 max       69513 min
Histogram: 1 12 24 66 110 131 93 49 23 3
Neighs:              0 ave           0 max           0 min
Histogram: 512 0 0 0 0 0 0 0 0 0
FullNghs:  1.91929e+07 ave 1.92477e+07 max 1.91286e+07 min
Histogram: 1 11 24 75 105 114 94 48 30 10

Total # of neighbors = 9.8267559e+09
Ave neighs/atom = 74.972198
Neighbor list builds = 50
Dangerous builds not checked
Total wall time: 0:00:02
