LAMMPS (4 Feb 2025 - Development - patch_4Feb2025-76-gf0bc9ddcc9-modified)
KOKKOS mode with Kokkos version 4.5.1 is enabled (../kokkos.cpp:72)
  will use up to 1 GPU(s) per node
package kokkos
package kokkos neigh full neigh/qeq full newton off comm device pair/only off neigh/transpose on
# 3d Lennard-Jones melt

units		lj
atom_style	atomic

lattice		fcc 0.8442
Lattice spacing in x,y,z = 1.6795962 1.6795962 1.6795962
region		box block 0 $x 0 $y 0 $z
region		box block 0 160 0 $y 0 $z
region		box block 0 160 0 160 0 $z
region		box block 0 160 0 160 0 320
create_box	1 box
Created orthogonal box = (0 0 0) to (268.73539 268.73539 537.47078)
  2 by 4 by 8 MPI processor grid
create_atoms	1 box
Created 32768000 atoms
  using lattice units in orthogonal box = (0 0 0) to (268.73539 268.73539 537.47078)
  create_atoms CPU = 0.326 seconds
mass		1 1.0

velocity	all create 1.44 87287 loop geom

pair_style	lj/cut 2.5
pair_coeff	1 1 1.0 1.0 2.5

neighbor	0.3 bin
neigh_modify	delay 0 every 20 check no

fix		1 all nve
thermo          10000

run		$t
run		1000
Generated 0 of 0 mixed pair_coeff terms from geometric mixing rule
Neighbor list info ...
  update: every = 20 steps, delay = 0 steps, check = no
  max neighbors/atom: 2000, page size: 100000
  master list distance cutoff = 2.8
  ghost atom cutoff = 2.8
  binsize = 2.8, bins = 96 96 192
  1 neighbor lists, perpetual/occasional/extra = 1 0 0
  (1) pair lj/cut/kk, perpetual
      attributes: full, newton off, kokkos_device
      pair build: full/bin/kk/device
      stencil: full/bin/3d
      bin: kk/device
Per MPI rank memory allocation (min/avg/max) = 85.29 | 85.88 | 86.27 Mbytes
   Step          Temp          E_pair         E_mol          TotEng         Press     
         0   1.44          -6.7733681      0             -4.6133681     -5.0196693    
      1000   0.70381025    -5.6761714      0             -4.620456       0.70457096   
Loop time of 2.58551 on 64 procs for 1000 steps with 32768000 atoms

Performance: 167085.194 tau/day, 386.771 timesteps/s, 12.674 Gatom-step/s
124.7% CPU use with 64 MPI tasks x 1 OpenMP threads

MPI task timing breakdown:
Section |  min time  |  avg time  |  max time  |%varavg| %total
---------------------------------------------------------------
Pair    | 0.010598   | 0.023419   | 0.033176   |   4.6 |  0.91
Neigh   | 0.072107   | 0.16529    | 0.40563    |  21.3 |  6.39
Comm    | 1.5064     | 1.7025     | 1.8558     |   6.8 | 65.85
Output  | 0.00042197 | 0.0012741  | 0.0015753  |   0.5 |  0.05
Modify  | 0.63022    | 0.68983    | 0.75549    |   3.4 | 26.68
Other   |            | 0.0032     |            |       |  0.12

Nlocal:         512000 ave      512318 max      511528 min
Histogram: 2 2 2 8 4 12 9 14 8 3
Nghost:         114500 ave      114789 max      114114 min
Histogram: 1 0 5 6 9 13 14 10 4 2
Neighs:              0 ave           0 max           0 min
Histogram: 64 0 0 0 0 0 0 0 0 0
FullNghs:  3.83864e+07 ave 3.84307e+07 max 3.83217e+07 min
Histogram: 1 3 5 2 8 10 12 12 9 2

Total # of neighbors = 2.4567301e+09
Ave neighs/atom = 74.973453
Neighbor list builds = 50
Dangerous builds not checked
Total wall time: 0:00:04
