LAMMPS (4 Feb 2025 - Development - patch_4Feb2025-76-gf0bc9ddcc9-modified)
KOKKOS mode with Kokkos version 4.5.1 is enabled (../kokkos.cpp:72)
  will use up to 1 GPU(s) per node
package kokkos
package kokkos neigh full neigh/qeq full newton off comm device pair/only off neigh/transpose on
# 3d Lennard-Jones melt

units		lj
atom_style	atomic

lattice		fcc 0.8442
Lattice spacing in x,y,z = 1.6795962 1.6795962 1.6795962
region		box block 0 $x 0 $y 0 $z
region		box block 0 160 0 $y 0 $z
region		box block 0 160 0 160 0 $z
region		box block 0 160 0 160 0 160
create_box	1 box
Created orthogonal box = (0 0 0) to (268.73539 268.73539 268.73539)
  2 by 2 by 2 MPI processor grid
create_atoms	1 box
Created 16384000 atoms
  using lattice units in orthogonal box = (0 0 0) to (268.73539 268.73539 268.73539)
  create_atoms CPU = 0.403 seconds
mass		1 1.0

velocity	all create 1.44 87287 loop geom

pair_style	lj/cut 2.5
pair_coeff	1 1 1.0 1.0 2.5

neighbor	0.3 bin
neigh_modify	delay 0 every 20 check no

fix		1 all nve
thermo          10000

run		$t
run		1000
Generated 0 of 0 mixed pair_coeff terms from geometric mixing rule
Neighbor list info ...
  update: every = 20 steps, delay = 0 steps, check = no
  max neighbors/atom: 2000, page size: 100000
  master list distance cutoff = 2.8
  ghost atom cutoff = 2.8
  binsize = 2.8, bins = 96 96 96
  1 neighbor lists, perpetual/occasional/extra = 1 0 0
  (1) pair lj/cut/kk, perpetual
      attributes: full, newton off, kokkos_device
      pair build: full/bin/kk/device
      stencil: full/bin/3d
      bin: kk/device
Per MPI rank memory allocation (min/avg/max) = 310.3 | 310.3 | 310.3 Mbytes
   Step          Temp          E_pair         E_mol          TotEng         Press     
         0   1.44          -6.7733681      0             -4.6133682     -5.0196693    
      1000   0.70395276    -5.6763991      0             -4.62047        0.70361349   
Loop time of 4.99283 on 8 procs for 1000 steps with 16384000 atoms

Performance: 86524.156 tau/day, 200.287 timesteps/s, 3.282 Gatom-step/s
109.7% CPU use with 8 MPI tasks x 1 OpenMP threads

MPI task timing breakdown:
Section |  min time  |  avg time  |  max time  |%varavg| %total
---------------------------------------------------------------
Pair    | 0.012666   | 0.01339    | 0.013971   |   0.3 |  0.27
Neigh   | 0.26627    | 0.57431    | 0.79686    |  25.3 | 11.50
Comm    | 1.6235     | 1.8706     | 2.1839     |  14.6 | 37.47
Output  | 0.00040195 | 0.062886   | 0.072125   |   9.4 |  1.26
Modify  | 2.4192     | 2.4647     | 2.5162     |   2.0 | 49.36
Other   |            | 0.006932   |            |       |  0.14

Nlocal:      2.048e+06 ave 2.04831e+06 max 2.04768e+06 min
Histogram: 2 1 0 1 0 0 0 1 1 2
Nghost:         268204 ave      268544 max      267585 min
Histogram: 1 0 0 1 0 1 1 0 2 2
Neighs:              0 ave           0 max           0 min
Histogram: 8 0 0 0 0 0 0 0 0 0
FullNghs:  1.53539e+08 ave 1.53582e+08 max 1.53502e+08 min
Histogram: 3 0 0 1 0 0 1 0 2 1

Total # of neighbors = 1.2283158e+09
Ave neighs/atom = 74.970446
Neighbor list builds = 50
Dangerous builds not checked
Total wall time: 0:00:06
