LAMMPS (4 Feb 2025 - Development - patch_4Feb2025-76-gf0bc9ddcc9-modified)
KOKKOS mode with Kokkos version 4.5.1 is enabled (../kokkos.cpp:72)
  will use up to 1 GPU(s) per node
package kokkos
package kokkos neigh full neigh/qeq full newton off comm device pair/only off neigh/transpose on
# 3d Lennard-Jones melt

units		lj
atom_style	atomic

lattice		fcc 0.8442
Lattice spacing in x,y,z = 1.6795962 1.6795962 1.6795962
region		box block 0 $x 0 $y 0 $z
region		box block 0 640 0 $y 0 $z
region		box block 0 640 0 1280 0 $z
region		box block 0 640 0 1280 0 1280
create_box	1 box
Created orthogonal box = (0 0 0) to (1074.9416 2149.8831 2149.8831)
  8 by 16 by 32 MPI processor grid
create_atoms	1 box
Created 4194304000 atoms
  using lattice units in orthogonal box = (0 0 0) to (1074.9416 2149.8831 2149.8831)
  create_atoms CPU = 0.221 seconds
mass		1 1.0

velocity	all create 1.44 87287 loop geom

pair_style	lj/cut 2.5
pair_coeff	1 1 1.0 1.0 2.5

neighbor	0.3 bin
neigh_modify	delay 0 every 20 check no

fix		1 all nve
thermo          10000

run		$t
run		1000
Generated 0 of 0 mixed pair_coeff terms from geometric mixing rule
Neighbor list info ...
  update: every = 20 steps, delay = 0 steps, check = no
  max neighbors/atom: 2000, page size: 100000
  master list distance cutoff = 2.8
  ghost atom cutoff = 2.8
  binsize = 2.8, bins = 384 768 768
  1 neighbor lists, perpetual/occasional/extra = 1 0 0
  (1) pair lj/cut/kk, perpetual
      attributes: full, newton off, kokkos_device
      pair build: full/bin/kk/device
      stencil: full/bin/3d
      bin: kk/device
Per MPI rank memory allocation (min/avg/max) = 164 | 165.7 | 167.3 Mbytes
   Step          Temp          E_pair         E_mol          TotEng         Press     
         0   1.44          -6.7733681      0             -4.6133681     -5.0196693    
      1000   0.70385268    -5.6762404      0             -4.6204614      0.7042811    
Loop time of 3.9153 on 4096 procs for 1000 steps with 4194304000 atoms

Performance: 110336.490 tau/day, 255.409 timesteps/s, 1071.261 Gatom-step/s
119.3% CPU use with 4096 MPI tasks x 1 OpenMP threads

MPI task timing breakdown:
Section |  min time  |  avg time  |  max time  |%varavg| %total
---------------------------------------------------------------
Pair    | 0.011444   | 0.012556   | 0.019082   |   0.4 |  0.32
Neigh   | 0.13026    | 0.25162    | 0.8633     |  24.2 |  6.43
Comm    | 1.6436     | 2.1786     | 2.4598     |   8.2 | 55.64
Output  | 0.00053998 | 0.031755   | 0.033052   |   2.6 |  0.81
Modify  | 1.1646     | 1.4366     | 1.6486     |   6.1 | 36.69
Other   |            | 0.004166   |            |       |  0.11

Nlocal:      1.024e+06 ave 1.02489e+06 max 1.02311e+06 min
Histogram: 25 101 278 653 981 1000 656 294 92 16
Nghost:         180637 ave      181236 max      180014 min
Histogram: 6 43 203 614 1054 1142 700 264 62 8
Neighs:              0 ave           0 max           0 min
Histogram: 4096 0 0 0 0 0 0 0 0 0
FullNghs:  7.67715e+07 ave 7.68915e+07 max  7.6652e+07 min
Histogram: 26 101 256 677 975 994 669 296 90 12

Total # of neighbors = 3.1445614e+11
Ave neighs/atom = 74.972185
Neighbor list builds = 50
Dangerous builds not checked
Total wall time: 0:00:07
