LAMMPS (4 Feb 2025 - Development - patch_4Feb2025-76-gf0bc9ddcc9-modified)
KOKKOS mode with Kokkos version 4.5.1 is enabled (../kokkos.cpp:72)
  will use up to 1 GPU(s) per node
package kokkos
package kokkos neigh full neigh/qeq full newton off comm device pair/only off neigh/transpose on
# 3d Lennard-Jones melt

units		lj
atom_style	atomic

lattice		fcc 0.8442
Lattice spacing in x,y,z = 1.6795962 1.6795962 1.6795962
region		box block 0 $x 0 $y 0 $z
region		box block 0 320 0 $y 0 $z
region		box block 0 320 0 320 0 $z
region		box block 0 320 0 320 0 640
create_box	1 box
Created orthogonal box = (0 0 0) to (537.47078 537.47078 1074.9416)
  4 by 4 by 8 MPI processor grid
create_atoms	1 box
Created 262144000 atoms
  using lattice units in orthogonal box = (0 0 0) to (537.47078 537.47078 1074.9416)
  create_atoms CPU = 0.423 seconds
mass		1 1.0

velocity	all create 1.44 87287 loop geom

pair_style	lj/cut 2.5
pair_coeff	1 1 1.0 1.0 2.5

neighbor	0.3 bin
neigh_modify	delay 0 every 20 check no

fix		1 all nve
thermo          10000

run		$t
run		1000
Generated 0 of 0 mixed pair_coeff terms from geometric mixing rule
Neighbor list info ...
  update: every = 20 steps, delay = 0 steps, check = no
  max neighbors/atom: 2000, page size: 100000
  master list distance cutoff = 2.8
  ghost atom cutoff = 2.8
  binsize = 2.8, bins = 192 192 384
  1 neighbor lists, perpetual/occasional/extra = 1 0 0
  (1) pair lj/cut/kk, perpetual
      attributes: full, newton off, kokkos_device
      pair build: full/bin/kk/device
      stencil: full/bin/3d
      bin: kk/device
Per MPI rank memory allocation (min/avg/max) = 309 | 310.6 | 312.5 Mbytes
   Step          Temp          E_pair         E_mol          TotEng         Press     
         0   1.44          -6.7733681      0             -4.6133681     -5.0196693    
      1000   0.70383419    -5.6762124      0             -4.6204611      0.70436873   
Loop time of 7.27407 on 128 procs for 1000 steps with 262144000 atoms

Performance: 59389.060 tau/day, 137.475 timesteps/s, 36.038 Gatom-step/s
111.3% CPU use with 128 MPI tasks x 1 OpenMP threads

MPI task timing breakdown:
Section |  min time  |  avg time  |  max time  |%varavg| %total
---------------------------------------------------------------
Pair    | 0.012935   | 0.014275   | 0.021742   |   1.4 |  0.20
Neigh   | 0.26411    | 0.50855    | 1.4121     |  35.9 |  6.99
Comm    | 3.2703     | 4.054      | 4.4415     |  12.2 | 55.73
Output  | 0.00042552 | 0.0035491  | 0.0039938  |   0.7 |  0.05
Modify  | 2.3181     | 2.6867     | 3.0102     |   8.9 | 36.94
Other   |            | 0.006942   |            |       |  0.10

Nlocal:      2.048e+06 ave 2.04875e+06 max 2.04718e+06 min
Histogram: 2 7 18 12 17 21 24 15 9 3
Nghost:         268190 ave      268724 max      267201 min
Histogram: 1 0 1 1 16 25 35 32 14 3
Neighs:              0 ave           0 max           0 min
Histogram: 128 0 0 0 0 0 0 0 0 0
FullNghs:  1.53544e+08 ave 1.53647e+08 max 1.53419e+08 min
Histogram: 1 6 9 17 16 25 25 15 11 3

Total # of neighbors = 1.965357e+10
Ave neighs/atom = 74.97242
Neighbor list builds = 50
Dangerous builds not checked
Total wall time: 0:00:09
