LAMMPS (4 Feb 2025 - Development - patch_4Feb2025-76-gf0bc9ddcc9-modified)
KOKKOS mode with Kokkos version 4.5.1 is enabled (../kokkos.cpp:72)
  will use up to 1 GPU(s) per node
package kokkos
package kokkos neigh full neigh/qeq full newton off comm device pair/only off neigh/transpose on
# 3d Lennard-Jones melt

units		lj
atom_style	atomic

lattice		fcc 0.8442
Lattice spacing in x,y,z = 1.6795962 1.6795962 1.6795962
region		box block 0 $x 0 $y 0 $z
region		box block 0 640 0 $y 0 $z
region		box block 0 640 0 640 0 $z
region		box block 0 640 0 640 0 1280
create_box	1 box
Created orthogonal box = (0 0 0) to (1074.9416 1074.9416 2149.8831)
  8 by 8 by 32 MPI processor grid
create_atoms	1 box
Created 2097152000 atoms
  using lattice units in orthogonal box = (0 0 0) to (1074.9416 1074.9416 2149.8831)
  create_atoms CPU = 0.228 seconds
mass		1 1.0

velocity	all create 1.44 87287 loop geom

pair_style	lj/cut 2.5
pair_coeff	1 1 1.0 1.0 2.5

neighbor	0.3 bin
neigh_modify	delay 0 every 20 check no

fix		1 all nve
thermo          10000

run		$t
run		1000
Generated 0 of 0 mixed pair_coeff terms from geometric mixing rule
Neighbor list info ...
  update: every = 20 steps, delay = 0 steps, check = no
  max neighbors/atom: 2000, page size: 100000
  master list distance cutoff = 2.8
  ghost atom cutoff = 2.8
  binsize = 2.8, bins = 384 384 768
  1 neighbor lists, perpetual/occasional/extra = 1 0 0
  (1) pair lj/cut/kk, perpetual
      attributes: full, newton off, kokkos_device
      pair build: full/bin/kk/device
      stencil: full/bin/3d
      bin: kk/device
Per MPI rank memory allocation (min/avg/max) = 164 | 165.7 | 167.3 Mbytes
   Step          Temp          E_pair         E_mol          TotEng         Press     
         0   1.44          -6.7733681      0             -4.6133681     -5.0196693    
      1000   0.70385738    -5.6762473      0             -4.6204612      0.70421505   
Loop time of 3.90071 on 2048 procs for 1000 steps with 2097152000 atoms

Performance: 110749.027 tau/day, 256.363 timesteps/s, 537.633 Gatom-step/s
119.5% CPU use with 2048 MPI tasks x 1 OpenMP threads

MPI task timing breakdown:
Section |  min time  |  avg time  |  max time  |%varavg| %total
---------------------------------------------------------------
Pair    | 0.011533   | 0.012579   | 0.017517   |   0.4 |  0.32
Neigh   | 0.13133    | 0.25305    | 0.74532    |  24.7 |  6.49
Comm    | 1.6238     | 2.1645     | 2.4304     |   8.4 | 55.49
Output  | 0.00048956 | 0.031978   | 0.033265   |   2.3 |  0.82
Modify  | 1.2156     | 1.4345     | 1.6623     |   6.5 | 36.77
Other   |            | 0.004157   |            |       |  0.11

Nlocal:      1.024e+06 ave 1.02489e+06 max 1.02303e+06 min
Histogram: 5 35 103 307 435 527 409 155 56 16
Nghost:         180638 ave      181198 max      180104 min
Histogram: 14 47 181 359 469 506 291 135 41 5
Neighs:              0 ave           0 max           0 min
Histogram: 2048 0 0 0 0 0 0 0 0 0
FullNghs:  7.67715e+07 ave 7.68962e+07 max 7.66436e+07 min
Histogram: 5 48 114 343 444 544 357 140 43 10

Total # of neighbors = 1.5722807e+11
Ave neighs/atom = 74.972187
Neighbor list builds = 50
Dangerous builds not checked
Total wall time: 0:00:05
