LAMMPS (4 Feb 2025 - Development - patch_4Feb2025-76-gf0bc9ddcc9-modified)
KOKKOS mode with Kokkos version 4.5.1 is enabled (../kokkos.cpp:72)
  will use up to 1 GPU(s) per node
package kokkos
package kokkos neigh full neigh/qeq full newton off comm device pair/only off neigh/transpose on
# 3d Lennard-Jones melt

units		lj
atom_style	atomic

lattice		fcc 0.8442
Lattice spacing in x,y,z = 1.6795962 1.6795962 1.6795962
region		box block 0 $x 0 $y 0 $z
region		box block 0 160 0 $y 0 $z
region		box block 0 160 0 320 0 $z
region		box block 0 160 0 320 0 320
create_box	1 box
Created orthogonal box = (0 0 0) to (268.73539 537.47078 537.47078)
  1 by 4 by 4 MPI processor grid
create_atoms	1 box
Created 65536000 atoms
  using lattice units in orthogonal box = (0 0 0) to (268.73539 537.47078 537.47078)
  create_atoms CPU = 0.880 seconds
mass		1 1.0

velocity	all create 1.44 87287 loop geom

pair_style	lj/cut 2.5
pair_coeff	1 1 1.0 1.0 2.5

neighbor	0.3 bin
neigh_modify	delay 0 every 20 check no

fix		1 all nve
thermo          10000

run		$t
run		1000
Generated 0 of 0 mixed pair_coeff terms from geometric mixing rule
Neighbor list info ...
  update: every = 20 steps, delay = 0 steps, check = no
  max neighbors/atom: 2000, page size: 100000
  master list distance cutoff = 2.8
  ghost atom cutoff = 2.8
  binsize = 2.8, bins = 96 192 192
  1 neighbor lists, perpetual/occasional/extra = 1 0 0
  (1) pair lj/cut/kk, perpetual
      attributes: full, newton off, kokkos_device
      pair build: full/bin/kk/device
      stencil: full/bin/3d
      bin: kk/device
Per MPI rank memory allocation (min/avg/max) = 608.2 | 611 | 613.1 Mbytes
   Step          Temp          E_pair         E_mol          TotEng         Press     
         0   1.44          -6.7733681      0             -4.6133681     -5.0196693    
      1000   0.70379704    -5.6761512      0             -4.6204556      0.70456841   
Loop time of 14.64 on 16 procs for 1000 steps with 65536000 atoms

Performance: 29508.297 tau/day, 68.306 timesteps/s, 4.477 Gatom-step/s
101.5% CPU use with 16 MPI tasks x 1 OpenMP threads

MPI task timing breakdown:
Section |  min time  |  avg time  |  max time  |%varavg| %total
---------------------------------------------------------------
Pair    | 0.01793    | 0.030626   | 0.040167   |   3.6 |  0.21
Neigh   | 0.54009    | 1.3473     | 2.5688     |  61.3 |  9.20
Comm    | 5.1348     | 6.462      | 7.4961     |  30.1 | 44.14
Output  | 0.00058849 | 0.24101    | 0.25811    |  12.6 |  1.65
Modify  | 6.2989     | 6.543      | 6.7468     |   5.1 | 44.69
Other   |            | 0.01594    |            |       |  0.11

Nlocal:      4.096e+06 ave 4.09648e+06 max  4.0949e+06 min
Histogram: 1 0 0 0 1 1 5 3 2 3
Nghost:         443312 ave      443825 max      443045 min
Histogram: 2 1 4 5 1 2 0 0 0 1
Neighs:              0 ave           0 max           0 min
Histogram: 16 0 0 0 0 0 0 0 0 0
FullNghs:  3.07089e+08 ave 3.07159e+08 max 3.06935e+08 min
Histogram: 1 0 0 0 1 2 3 4 2 3

Total # of neighbors = 4.9134299e+09
Ave neighs/atom = 74.972991
Neighbor list builds = 50
Dangerous builds not checked
Total wall time: 0:00:17
