LAMMPS (4 Feb 2025 - Development - patch_4Feb2025-76-gf0bc9ddcc9-modified)
KOKKOS mode with Kokkos version 4.5.1 is enabled (../kokkos.cpp:72)
  will use up to 1 GPU(s) per node
package kokkos
package kokkos neigh full neigh/qeq full newton off comm device pair/only off neigh/transpose on
# 3d Lennard-Jones melt

units		lj
atom_style	atomic

lattice		fcc 0.8442
Lattice spacing in x,y,z = 1.6795962 1.6795962 1.6795962
region		box block 0 $x 0 $y 0 $z
region		box block 0 40 0 $y 0 $z
region		box block 0 40 0 40 0 $z
region		box block 0 40 0 40 0 80
create_box	1 box
Created orthogonal box = (0 0 0) to (67.183848 67.183848 134.3677)
  1 by 1 by 1 MPI processor grid
create_atoms	1 box
Created 512000 atoms
  using lattice units in orthogonal box = (0 0 0) to (67.183848 67.183848 134.3677)
  create_atoms CPU = 0.105 seconds
mass		1 1.0

velocity	all create 1.44 87287 loop geom

pair_style	lj/cut 2.5
pair_coeff	1 1 1.0 1.0 2.5

neighbor	0.3 bin
neigh_modify	delay 0 every 20 check no

fix		1 all nve
thermo          10000

run		$t
run		1000
Generated 0 of 0 mixed pair_coeff terms from geometric mixing rule
Neighbor list info ...
  update: every = 20 steps, delay = 0 steps, check = no
  max neighbors/atom: 2000, page size: 100000
  master list distance cutoff = 2.8
  ghost atom cutoff = 2.8
  binsize = 2.8, bins = 24 24 48
  1 neighbor lists, perpetual/occasional/extra = 1 0 0
  (1) pair lj/cut/kk, perpetual
      attributes: full, newton off, kokkos_device
      pair build: full/bin/kk/device
      stencil: full/bin/3d
      bin: kk/device
Per MPI rank memory allocation (min/avg/max) = 85.42 | 85.42 | 85.42 Mbytes
   Step          Temp          E_pair         E_mol          TotEng         Press     
         0   1.44          -6.7733681      0             -4.6133723     -5.0196716    
      1000   0.7038891     -5.6763582      0             -4.6205266      0.70117818   
Loop time of 0.765381 on 1 procs for 1000 steps with 512000 atoms

Performance: 564424.583 tau/day, 1306.538 timesteps/s, 668.948 Matom-step/s
135.8% CPU use with 1 MPI tasks x 1 OpenMP threads

MPI task timing breakdown:
Section |  min time  |  avg time  |  max time  |%varavg| %total
---------------------------------------------------------------
Pair    | 0.053755   | 0.053755   | 0.053755   |   0.0 |  7.02
Neigh   | 0.073626   | 0.073626   | 0.073626   |   0.0 |  9.62
Comm    | 0.08339    | 0.08339    | 0.08339    |   0.0 | 10.90
Output  | 0.00010292 | 0.00010292 | 0.00010292 |   0.0 |  0.01
Modify  | 0.55158    | 0.55158    | 0.55158    |   0.0 | 72.07
Other   |            | 0.002925   |            |       |  0.38

Nlocal:         512000 ave      512000 max      512000 min
Histogram: 1 0 0 0 0 0 0 0 0 0
Nghost:         114420 ave      114420 max      114420 min
Histogram: 1 0 0 0 0 0 0 0 0 0
Neighs:              0 ave           0 max           0 min
Histogram: 1 0 0 0 0 0 0 0 0 0
FullNghs:   3.8386e+07 ave  3.8386e+07 max  3.8386e+07 min
Histogram: 1 0 0 0 0 0 0 0 0 0

Total # of neighbors = 38386032
Ave neighs/atom = 74.972719
Neighbor list builds = 50
Dangerous builds not checked
Total wall time: 0:00:02
