LAMMPS (4 Feb 2025 - Development - patch_4Feb2025-76-gf0bc9ddcc9-modified)
KOKKOS mode with Kokkos version 4.5.1 is enabled (../kokkos.cpp:72)
  will use up to 1 GPU(s) per node
package kokkos
package kokkos neigh full neigh/qeq full newton off comm device pair/only off neigh/transpose on
# 3d Lennard-Jones melt

units		lj
atom_style	atomic

lattice		fcc 0.8442
Lattice spacing in x,y,z = 1.6795962 1.6795962 1.6795962
region		box block 0 $x 0 $y 0 $z
region		box block 0 80 0 $y 0 $z
region		box block 0 80 0 80 0 $z
region		box block 0 80 0 80 0 160
create_box	1 box
Created orthogonal box = (0 0 0) to (134.3677 134.3677 268.73539)
  2 by 2 by 8 MPI processor grid
create_atoms	1 box
Created 4096000 atoms
  using lattice units in orthogonal box = (0 0 0) to (134.3677 134.3677 268.73539)
  create_atoms CPU = 0.031 seconds
mass		1 1.0

velocity	all create 1.44 87287 loop geom

pair_style	lj/cut 2.5
pair_coeff	1 1 1.0 1.0 2.5

neighbor	0.3 bin
neigh_modify	delay 0 every 20 check no

fix		1 all nve
thermo          10000

run		$t
run		1000
Generated 0 of 0 mixed pair_coeff terms from geometric mixing rule
Neighbor list info ...
  update: every = 20 steps, delay = 0 steps, check = no
  max neighbors/atom: 2000, page size: 100000
  master list distance cutoff = 2.8
  ghost atom cutoff = 2.8
  binsize = 2.8, bins = 48 48 96
  1 neighbor lists, perpetual/occasional/extra = 1 0 0
  (1) pair lj/cut/kk, perpetual
      attributes: full, newton off, kokkos_device
      pair build: full/bin/kk/device
      stencil: full/bin/3d
      bin: kk/device
Per MPI rank memory allocation (min/avg/max) = 24.97 | 25.38 | 25.62 Mbytes
   Step          Temp          E_pair         E_mol          TotEng         Press     
         0   1.44          -6.7733681      0             -4.6133686     -5.0196696    
      1000   0.7037762     -5.6761254      0             -4.6204614      0.704079     
Loop time of 0.669633 on 32 procs for 1000 steps with 4096000 atoms

Performance: 645129.761 tau/day, 1493.356 timesteps/s, 6.117 Gatom-step/s
168.6% CPU use with 32 MPI tasks x 1 OpenMP threads

MPI task timing breakdown:
Section |  min time  |  avg time  |  max time  |%varavg| %total
---------------------------------------------------------------
Pair    | 0.0093641  | 0.0098647  | 0.010524   |   0.3 |  1.47
Neigh   | 0.026056   | 0.042703   | 0.075437   |   6.9 |  6.38
Comm    | 0.37377    | 0.41498    | 0.44663    |   3.0 | 61.97
Output  | 0.00032731 | 0.0037943  | 0.0042357  |   1.7 |  0.57
Modify  | 0.18571    | 0.19702    | 0.20896    |   1.6 | 29.42
Other   |            | 0.001268   |            |       |  0.19

Nlocal:         128000 ave      128288 max      127690 min
Histogram: 1 3 1 5 3 7 4 5 2 1
Nghost:        47500.7 ave       47704 max       47245 min
Histogram: 1 0 3 1 8 6 4 6 2 1
Neighs:              0 ave           0 max           0 min
Histogram: 32 0 0 0 0 0 0 0 0 0
FullNghs:  9.59634e+06 ave 9.63475e+06 max  9.5562e+06 min
Histogram: 1 3 1 5 3 7 6 3 2 1

Total # of neighbors = 3.0708274e+08
Ave neighs/atom = 74.971372
Neighbor list builds = 50
Dangerous builds not checked
Total wall time: 0:00:01
