LAMMPS (4 Feb 2025 - Development - patch_4Feb2025-76-gf0bc9ddcc9-modified)
KOKKOS mode with Kokkos version 4.5.1 is enabled (../kokkos.cpp:72)
  will use up to 1 GPU(s) per node
package kokkos
package kokkos neigh full neigh/qeq full newton off comm device pair/only off neigh/transpose on
# 3d Lennard-Jones melt

units		lj
atom_style	atomic

lattice		fcc 0.8442
Lattice spacing in x,y,z = 1.6795962 1.6795962 1.6795962
region		box block 0 $x 0 $y 0 $z
region		box block 0 320 0 $y 0 $z
region		box block 0 320 0 320 0 $z
region		box block 0 320 0 320 0 640
create_box	1 box
Created orthogonal box = (0 0 0) to (537.47078 537.47078 1074.9416)
  2 by 4 by 8 MPI processor grid
create_atoms	1 box
Created 262144000 atoms
  using lattice units in orthogonal box = (0 0 0) to (537.47078 537.47078 1074.9416)
  create_atoms CPU = 0.935 seconds
mass		1 1.0

velocity	all create 1.44 87287 loop geom

pair_style	lj/cut 2.5
pair_coeff	1 1 1.0 1.0 2.5

neighbor	0.3 bin
neigh_modify	delay 0 every 20 check no

fix		1 all nve
thermo          10000

run		$t
run		1000
Generated 0 of 0 mixed pair_coeff terms from geometric mixing rule
Neighbor list info ...
  update: every = 20 steps, delay = 0 steps, check = no
  max neighbors/atom: 2000, page size: 100000
  master list distance cutoff = 2.8
  ghost atom cutoff = 2.8
  binsize = 2.8, bins = 192 192 384
  1 neighbor lists, perpetual/occasional/extra = 1 0 0
  (1) pair lj/cut/kk, perpetual
      attributes: full, newton off, kokkos_device
      pair build: full/bin/kk/device
      stencil: full/bin/3d
      bin: kk/device
Per MPI rank memory allocation (min/avg/max) = 608.2 | 611 | 613.1 Mbytes
   Step          Temp          E_pair         E_mol          TotEng         Press     
         0   1.44          -6.7733681      0             -4.6133681     -5.0196693    
      1000   0.70383422    -5.6762124      0             -4.6204611      0.70436854   
Loop time of 20.596 on 64 procs for 1000 steps with 262144000 atoms

Performance: 20974.904 tau/day, 48.553 timesteps/s, 12.728 Gatom-step/s
101.8% CPU use with 64 MPI tasks x 1 OpenMP threads

MPI task timing breakdown:
Section |  min time  |  avg time  |  max time  |%varavg| %total
---------------------------------------------------------------
Pair    | 0.016749   | 0.027628   | 0.042752   |   3.6 |  0.13
Neigh   | 0.54322    | 1.4874     | 4.6987     |  83.9 |  7.22
Comm    | 8.7918     | 12.12      | 13.415     |  31.5 | 58.85
Output  | 0.00059531 | 0.25139    | 0.2604     |   8.6 |  1.22
Modify  | 6.3197     | 6.6937     | 7.1196     |   6.1 | 32.50
Other   |            | 0.01568    |            |       |  0.08

Nlocal:      4.096e+06 ave 4.09695e+06 max 4.09484e+06 min
Histogram: 2 3 4 5 9 12 12 9 5 3
Nghost:         443285 ave      443854 max      442488 min
Histogram: 2 3 0 6 6 14 16 9 3 5
Neighs:              0 ave           0 max           0 min
Histogram: 64 0 0 0 0 0 0 0 0 0
FullNghs:  3.07087e+08 ave 3.07212e+08 max 3.06925e+08 min
Histogram: 1 3 5 5 9 12 11 7 8 3

Total # of neighbors = 1.965357e+10
Ave neighs/atom = 74.97242
Neighbor list builds = 50
Dangerous builds not checked
Total wall time: 0:00:24
