LAMMPS (4 Feb 2025 - Development - patch_4Feb2025-76-gf0bc9ddcc9-modified)
KOKKOS mode with Kokkos version 4.5.1 is enabled (../kokkos.cpp:72)
  will use up to 1 GPU(s) per node
package kokkos
package kokkos neigh full neigh/qeq full newton off comm device pair/only off neigh/transpose on
# 3d Lennard-Jones melt

units		lj
atom_style	atomic

lattice		fcc 0.8442
Lattice spacing in x,y,z = 1.6795962 1.6795962 1.6795962
region		box block 0 $x 0 $y 0 $z
region		box block 0 160 0 $y 0 $z
region		box block 0 160 0 320 0 $z
region		box block 0 160 0 320 0 320
create_box	1 box
Created orthogonal box = (0 0 0) to (268.73539 537.47078 537.47078)
  4 by 8 by 8 MPI processor grid
create_atoms	1 box
Created 65536000 atoms
  using lattice units in orthogonal box = (0 0 0) to (268.73539 537.47078 537.47078)
  create_atoms CPU = 0.063 seconds
mass		1 1.0

velocity	all create 1.44 87287 loop geom

pair_style	lj/cut 2.5
pair_coeff	1 1 1.0 1.0 2.5

neighbor	0.3 bin
neigh_modify	delay 0 every 20 check no

fix		1 all nve
thermo          10000

run		$t
run		1000
Generated 0 of 0 mixed pair_coeff terms from geometric mixing rule
Neighbor list info ...
  update: every = 20 steps, delay = 0 steps, check = no
  max neighbors/atom: 2000, page size: 100000
  master list distance cutoff = 2.8
  ghost atom cutoff = 2.8
  binsize = 2.8, bins = 96 192 192
  1 neighbor lists, perpetual/occasional/extra = 1 0 0
  (1) pair lj/cut/kk, perpetual
      attributes: full, newton off, kokkos_device
      pair build: full/bin/kk/device
      stencil: full/bin/3d
      bin: kk/device
Per MPI rank memory allocation (min/avg/max) = 44.24 | 44.97 | 45.34 Mbytes
   Step          Temp          E_pair         E_mol          TotEng         Press     
         0   1.44          -6.7733681      0             -4.6133681     -5.0196693    
      1000   0.70379704    -5.6761512      0             -4.6204556      0.70456846   
Loop time of 1.15831 on 256 procs for 1000 steps with 65536000 atoms

Performance: 372958.452 tau/day, 863.330 timesteps/s, 56.579 Gatom-step/s
148.5% CPU use with 256 MPI tasks x 1 OpenMP threads

MPI task timing breakdown:
Section |  min time  |  avg time  |  max time  |%varavg| %total
---------------------------------------------------------------
Pair    | 0.0095536  | 0.01063    | 0.022449   |   1.5 |  0.92
Neigh   | 0.038203   | 0.067652   | 0.15126    |   8.9 |  5.84
Comm    | 0.62808    | 0.71077    | 0.76122    |   3.5 | 61.36
Output  | 0.00044079 | 0.007509   | 0.0082489  |   1.3 |  0.65
Modify  | 0.33434    | 0.36016    | 0.38013    |   1.6 | 31.09
Other   |            | 0.001582   |            |       |  0.14

Nlocal:         256000 ave      256347 max      255624 min
Histogram: 7 7 14 42 47 48 47 25 9 10
Nghost:          69848 ave       70133 max       69535 min
Histogram: 1 7 13 35 56 57 55 19 10 3
Neighs:              0 ave           0 max           0 min
Histogram: 256 0 0 0 0 0 0 0 0 0
FullNghs:  1.91931e+07 ave 1.92416e+07 max 1.91449e+07 min
Histogram: 8 9 18 46 53 48 33 23 13 5

Total # of neighbors = 4.91343e+09
Ave neighs/atom = 74.972992
Neighbor list builds = 50
Dangerous builds not checked
Total wall time: 0:00:02
