LAMMPS (4 Feb 2025 - Development)
KOKKOS mode with Kokkos version 4.5.1 is enabled (../kokkos.cpp:72)
  will use up to 1 GPU(s) per node
package kokkos
package kokkos neigh full neigh/qeq full newton off comm device pair/only off
# 3d Lennard-Jones melt

units		lj
atom_style	atomic

lattice		fcc 0.8442
Lattice spacing in x,y,z = 1.6795962 1.6795962 1.6795962
region		box block 0 $x 0 $y 0 $z
region		box block 0 10 0 $y 0 $z
region		box block 0 10 0 10 0 $z
region		box block 0 10 0 10 0 20
create_box	1 box
Created orthogonal box = (0 0 0) to (16.795962 16.795962 33.591924)
  1 by 1 by 1 MPI processor grid
create_atoms	1 box
Created 8000 atoms
  using lattice units in orthogonal box = (0 0 0) to (16.795962 16.795962 33.591924)
  create_atoms CPU = 0.002 seconds
mass		1 1.0

velocity	all create 1.44 87287 loop geom

pair_style	lj/cut 2.5
pair_coeff	1 1 1.0 1.0 2.5

neighbor	0.3 bin
neigh_modify	delay 0 every 20 check no

fix		1 all nve
thermo          10000

run		$t
run		1000
Generated 0 of 0 mixed pair_coeff terms from geometric mixing rule
Neighbor list info ...
  update: every = 20 steps, delay = 0 steps, check = no
  max neighbors/atom: 2000, page size: 100000
  master list distance cutoff = 2.8
  ghost atom cutoff = 2.8
  binsize = 2.8, bins = 6 6 12
  1 neighbor lists, perpetual/occasional/extra = 1 0 0
  (1) pair lj/cut/kk, perpetual
      attributes: full, newton off, kokkos_device
      pair build: full/bin/kk/device
      stencil: full/bin/3d
      bin: kk/device
Per MPI rank memory allocation (min/avg/max) = 2.948 | 2.948 | 2.948 Mbytes
   Step          Temp          E_pair         E_mol          TotEng         Press     
         0   1.44          -6.7733681      0             -4.6136381     -5.0198212    
      1000   0.70546478    -5.6789988      0             -4.6209339      0.67379694   
Loop time of 0.081596 on 1 procs for 1000 steps with 8000 atoms

Performance: 5294374.126 tau/day, 12255.496 timesteps/s, 98.044 Matom-step/s
99.9% CPU use with 1 MPI tasks x 1 OpenMP threads

MPI task timing breakdown:
Section |  min time  |  avg time  |  max time  |%varavg| %total
---------------------------------------------------------------
Pair    | 0.012879   | 0.012879   | 0.012879   |   0.0 | 15.78
Neigh   | 0.011873   | 0.011873   | 0.011873   |   0.0 | 14.55
Comm    | 0.023752   | 0.023752   | 0.023752   |   0.0 | 29.11
Output  | 4.2655e-05 | 4.2655e-05 | 4.2655e-05 |   0.0 |  0.05
Modify  | 0.032564   | 0.032564   | 0.032564   |   0.0 | 39.91
Other   |            | 0.0004852  |            |       |  0.59

Nlocal:           8000 ave        8000 max        8000 min
Histogram: 1 0 0 0 0 0 0 0 0 0
Nghost:           8734 ave        8734 max        8734 min
Histogram: 1 0 0 0 0 0 0 0 0 0
Neighs:              0 ave           0 max           0 min
Histogram: 1 0 0 0 0 0 0 0 0 0
FullNghs:       599980 ave      599980 max      599980 min
Histogram: 1 0 0 0 0 0 0 0 0 0

Total # of neighbors = 599980
Ave neighs/atom = 74.9975
Neighbor list builds = 50
Dangerous builds not checked
Total wall time: 0:00:00
