LAMMPS (4 Feb 2025 - Development)
KOKKOS mode with Kokkos version 4.5.1 is enabled (../kokkos.cpp:72)
  will use up to 1 GPU(s) per node
package kokkos
package kokkos neigh half neigh/qeq full newton off comm device pair/only off
# 3d Lennard-Jones melt

units		lj
atom_style	atomic

lattice		fcc 0.8442
Lattice spacing in x,y,z = 1.6795962 1.6795962 1.6795962
region		box block 0 $x 0 $y 0 $z
region		box block 0 40 0 $y 0 $z
region		box block 0 40 0 80 0 $z
region		box block 0 40 0 80 0 80
create_box	1 box
Created orthogonal box = (0 0 0) to (67.183848 134.3677 134.3677)
  1 by 1 by 1 MPI processor grid
create_atoms	1 box
Created 1024000 atoms
  using lattice units in orthogonal box = (0 0 0) to (67.183848 134.3677 134.3677)
  create_atoms CPU = 0.073 seconds
mass		1 1.0

velocity	all create 1.44 87287 loop geom

pair_style	lj/cut 2.5
pair_coeff	1 1 1.0 1.0 2.5

neighbor	0.3 bin
neigh_modify	delay 0 every 20 check no

fix		1 all nve
thermo          10000

run		$t
run		1000
Generated 0 of 0 mixed pair_coeff terms from geometric mixing rule
Neighbor list info ...
  update: every = 20 steps, delay = 0 steps, check = no
  max neighbors/atom: 2000, page size: 100000
  master list distance cutoff = 2.8
  ghost atom cutoff = 2.8
  binsize = 2.8, bins = 24 48 48
  1 neighbor lists, perpetual/occasional/extra = 1 0 0
  (1) pair lj/cut/kk, perpetual
      attributes: half, newton off, kokkos_device
      pair build: half/bin/newtoff/kk/device
      stencil: full/bin/3d
      bin: kk/device
Per MPI rank memory allocation (min/avg/max) = 155.5 | 155.5 | 155.5 Mbytes
   Step          Temp          E_pair         E_mol          TotEng         Press     
         0   1.44          -6.7733681      0             -4.6133702     -5.0196705    
      1000   0.70419563    -5.6767685      0             -4.6204761      0.70292757   
Loop time of 1.41894 on 1 procs for 1000 steps with 1024000 atoms

Performance: 304453.625 tau/day, 704.754 timesteps/s, 721.668 Matom-step/s
98.1% CPU use with 1 MPI tasks x 1 OpenMP threads

MPI task timing breakdown:
Section |  min time  |  avg time  |  max time  |%varavg| %total
---------------------------------------------------------------
Pair    | 0.067597   | 0.067597   | 0.067597   |   0.0 |  4.76
Neigh   | 0.10991    | 0.10991    | 0.10991    |   0.0 |  7.75
Comm    | 0.090647   | 0.090647   | 0.090647   |   0.0 |  6.39
Output  | 8.76e-05   | 8.76e-05   | 8.76e-05   |   0.0 |  0.01
Modify  | 1.1249     | 1.1249     | 1.1249     |   0.0 | 79.28
Other   |            | 0.02581    |            |       |  1.82

Nlocal:      1.024e+06 ave   1.024e+06 max   1.024e+06 min
Histogram: 1 0 0 0 0 0 0 0 0 0
Nghost:         180627 ave      180627 max      180627 min
Histogram: 1 0 0 0 0 0 0 0 0 0
Neighs:    3.95793e+07 ave 3.95793e+07 max 3.95793e+07 min
Histogram: 1 0 0 0 0 0 0 0 0 0

Total # of neighbors = 39579282
Ave neighs/atom = 38.651643
Neighbor list builds = 50
Dangerous builds not checked
Total wall time: 0:00:02
