LAMMPS (4 Feb 2025 - Development)
KOKKOS mode with Kokkos version 4.5.1 is enabled (../kokkos.cpp:72)
  will use up to 1 GPU(s) per node
package kokkos
package kokkos neigh full neigh/qeq full newton off comm device pair/only off
# 3d Lennard-Jones melt

units		lj
atom_style	atomic

lattice		fcc 0.8442
Lattice spacing in x,y,z = 1.6795962 1.6795962 1.6795962
region		box block 0 $x 0 $y 0 $z
region		box block 0 160 0 $y 0 $z
region		box block 0 160 0 160 0 $z
region		box block 0 160 0 160 0 160
create_box	1 box
Created orthogonal box = (0 0 0) to (268.73539 268.73539 268.73539)
  1 by 1 by 1 MPI processor grid
create_atoms	1 box
Created 16384000 atoms
  using lattice units in orthogonal box = (0 0 0) to (268.73539 268.73539 268.73539)
  create_atoms CPU = 1.357 seconds
mass		1 1.0

velocity	all create 1.44 87287 loop geom

pair_style	lj/cut 2.5
pair_coeff	1 1 1.0 1.0 2.5

neighbor	0.3 bin
neigh_modify	delay 0 every 20 check no

fix		1 all nve
thermo          10000

run		$t
run		1000
Generated 0 of 0 mixed pair_coeff terms from geometric mixing rule
Neighbor list info ...
  update: every = 20 steps, delay = 0 steps, check = no
  max neighbors/atom: 2000, page size: 100000
  master list distance cutoff = 2.8
  ghost atom cutoff = 2.8
  binsize = 2.8, bins = 96 96 96
  1 neighbor lists, perpetual/occasional/extra = 1 0 0
  (1) pair lj/cut/kk, perpetual
      attributes: full, newton off, kokkos_device
      pair build: full/bin/kk/device
      stencil: full/bin/3d
      bin: kk/device
Per MPI rank memory allocation (min/avg/max) = 2162 | 2162 | 2162 Mbytes
   Step          Temp          E_pair         E_mol          TotEng         Press     
         0   1.44          -6.7733681      0             -4.6133682     -5.0196693    
      1000   0.70377312    -5.6761063      0             -4.6204466      0.70509821   
Loop time of 70.4387 on 1 procs for 1000 steps with 16384000 atoms

Performance: 6132.994 tau/day, 14.197 timesteps/s, 232.599 Matom-step/s
76.2% CPU use with 1 MPI tasks x 1 OpenMP threads

MPI task timing breakdown:
Section |  min time  |  avg time  |  max time  |%varavg| %total
---------------------------------------------------------------
Pair    | 2.5821     | 2.5821     | 2.5821     |   0.0 |  3.67
Neigh   | 7.3101     | 7.3101     | 7.3101     |   0.0 | 10.38
Comm    | 1.3169     | 1.3169     | 1.3169     |   0.0 |  1.87
Output  | 0.00078696 | 0.00078696 | 0.00078696 |   0.0 |  0.00
Modify  | 59.102     | 59.102     | 59.102     |   0.0 | 83.91
Other   |            | 0.1265     |            |       |  0.18

Nlocal:     1.6384e+07 ave  1.6384e+07 max  1.6384e+07 min
Histogram: 1 0 0 0 0 0 0 0 0 0
Nghost:    1.05124e+06 ave 1.05124e+06 max 1.05124e+06 min
Histogram: 1 0 0 0 0 0 0 0 0 0
Neighs:              0 ave           0 max           0 min
Histogram: 1 0 0 0 0 0 0 0 0 0
FullNghs:  1.22836e+09 ave 1.22836e+09 max 1.22836e+09 min
Histogram: 1 0 0 0 0 0 0 0 0 0

Total # of neighbors = 1.2283646e+09
Ave neighs/atom = 74.973427
Neighbor list builds = 50
Dangerous builds not checked
Total wall time: 0:01:21
