LAMMPS (30 Jul 2021)
  using 1 OpenMP thread(s) per MPI task
# Pure HNS crystal, ReaxFF tests for benchmarking LAMMPS
# See README for more info

units		real
atom_style	charge
atom_modify sort  100 0.0
dimension       3
boundary        p p p
box               tilt large

read_data  	data.hns
Reading data file ...
  triclinic box = (0.0000000 0.0000000 0.0000000) to (22.326000 11.141200 13.778966) with tilt (0.0000000 -5.0260300 0.0000000)
  4 by 3 by 3 MPI processor grid
  reading atoms ...
  304 atoms
  reading velocities ...
  304 velocities
  read_data CPU = 0.021 seconds
replicate         $x $y $z bbox
replicate         8 $y $z bbox
replicate         8 16 $z bbox
replicate         8 16 12 bbox
Replicating atoms ...
  triclinic box = (0.0000000 0.0000000 0.0000000) to (178.60800 178.25920 165.34759) with tilt (0.0000000 -60.312360 0.0000000)
  3 by 4 by 3 MPI processor grid
  bounding box image = (0 -1 -1) to (0 1 1)
  bounding box extra memory = 0.03 MB
  average # of replicas added to proc = 131.94 out of 1536 (8.59%)
  466944 atoms
  replicate CPU = 0.004 seconds

pair_style        reax/c NULL
pair_coeff	* * ffield.reax.hns C H O N

compute   	reax all pair reax/c

neighbor	1.0 bin
neigh_modify      every 20 delay 0 check no

timestep        0.1

thermo_style      custom step temp pe press evdwl ecoul vol
thermo_modify	norm yes
thermo	  	100

velocity          all create 300.0 41279 loop geom

fix		1 all nve
fix             2 all qeq/reax 1 0.0 10.0 1e-6 reax/c

run  		$t
run  		100
Neighbor list info ...
  update every 20 steps, delay 0 steps, check no
  max neighbors/atom: 2000, page size: 100000
  master list distance cutoff = 11
  ghost atom cutoff = 11
  binsize = 5.5, bins = 44 33 31
  2 neighbor lists, perpetual/occasional/extra = 2 0 0
  (1) pair reax/c, perpetual
      attributes: half, newton off, ghost
      pair build: half/bin/newtoff/ghost
      stencil: full/ghost/bin/3d
      bin: standard
  (2) fix qeq/reax, perpetual, copy from (1)
      attributes: half, newton off, ghost
      pair build: copy
      stencil: none
      bin: none
Per MPI rank memory allocation (min/avg/max) = 632.8 | 640.0 | 644.4 Mbytes
Step Temp PotEng Press E_vdwl E_coul Volume 
       0          300   -113.27833     439.0118   -111.57687   -1.7014647    5264422.5 
     100    302.44935   -113.28491    10179.091   -111.58622   -1.6986952    5264422.5 
Loop time of 121.95 on 36 procs for 100 steps with 466944 atoms

Performance: 0.007 ns/day, 3387.508 hours/ns, 0.820 timesteps/s
97.9% CPU use with 36 MPI tasks x 1 OpenMP threads

MPI task timing breakdown:
Section |  min time  |  avg time  |  max time  |%varavg| %total
---------------------------------------------------------------
Pair    | 70.763     | 76.221     | 82.311     |  28.8 | 62.50
Neigh   | 1.1591     | 1.1817     | 1.208      |   1.0 |  0.97
Comm    | 0.65567    | 6.744      | 12.205     |  96.7 |  5.53
Output  | 9.382e-05  | 0.00011845 | 0.00020152 |   0.0 |  0.00
Modify  | 37.756     | 37.784     | 37.809     |   0.2 | 30.98
Other   |            | 0.01897    |            |       |  0.02

Nlocal:        12970.7 ave       13081 max       12798 min
Histogram: 12 0 0 0 0 0 0 2 10 12
Nghost:        24573.8 ave       24759 max       24303 min
Histogram: 12 0 0 0 0 0 0 9 3 12
Neighs:    3.89486e+06 ave  3.9261e+06 max 3.84511e+06 min
Histogram: 10 2 0 0 0 0 0 2 10 12

Total # of neighbors = 1.4021505e+08
Ave neighs/atom = 300.28237
Neighbor list builds = 5
Dangerous builds not checked
Total wall time: 0:02:04
