LAMMPS (2 Apr 2025 - Development - patch_2Apr2025-24-g6372178caa)
KOKKOS mode with Kokkos version 4.6.0 is enabled (../kokkos.cpp:72)
  will use up to 1 GPU(s) per node
package kokkos
package kokkos neigh full neigh/qeq full newton off comm device pair/only off
# 3d Lennard-Jones melt

units		lj
atom_style	atomic

lattice		fcc 0.8442
Lattice spacing in x,y,z = 1.6795962 1.6795962 1.6795962
region		box block 0 $x 0 $y 0 $z
region		box block 0 160 0 $y 0 $z
region		box block 0 160 0 160 0 $z
region		box block 0 160 0 160 0 320
create_box	1 box
Created orthogonal box = (0 0 0) to (268.73539 268.73539 537.47078)
  1 by 1 by 1 MPI processor grid
create_atoms	1 box
Created 32768000 atoms
  using lattice units in orthogonal box = (0 0 0) to (268.73539 268.73539 537.47078)
  create_atoms CPU = 1.986 seconds
mass		1 1.0

velocity	all create 1.44 87287 loop geom

pair_style	lj/cut 2.5
pair_coeff	1 1 1.0 1.0 2.5

neighbor	0.3 bin
neigh_modify	delay 0 every 20 check no

fix		1 all nve
thermo          10000

run		$t
run		1000
Generated 0 of 0 mixed pair_coeff terms from geometric mixing rule
Neighbor list info ...
  update: every = 20 steps, delay = 0 steps, check = no
  max neighbors/atom: 2000, page size: 100000
  master list distance cutoff = 2.8
  ghost atom cutoff = 2.8
  binsize = 2.8, bins = 96 96 192
  1 neighbor lists, perpetual/occasional/extra = 1 0 0
  (1) pair lj/cut/kk, perpetual
      attributes: full, newton off, kokkos_device
      pair build: full/bin/kk/device
      stencil: full/bin/3d
      bin: kk/device
Per MPI rank memory allocation (min/avg/max) = 4287 | 4287 | 4287 Mbytes
   Step          Temp          E_pair         E_mol          TotEng         Press     
         0   1.44          -6.7733681      0             -4.6133681     -5.0196693    
      1000   0.70381028    -5.6761714      0             -4.620456       0.7045708    
Loop time of 80.6249 on 1 procs for 1000 steps with 32768000 atoms

Performance: 5358.145 tau/day, 12.403 timesteps/s, 406.425 Matom-step/s
85.0% CPU use with 1 MPI tasks x 1 OpenMP threads

MPI task timing breakdown:
Section |  min time  |  avg time  |  max time  |%varavg| %total
---------------------------------------------------------------
Pair    | 44.879     | 44.879     | 44.879     |   0.0 | 55.66
Neigh   | 19.187     | 19.187     | 19.187     |   0.0 | 23.80
Comm    | 16.477     | 16.477     | 16.477     |   0.0 | 20.44
Output  | 0.001563   | 0.001563   | 0.001563   |   0.0 |  0.00
Modify  | 0.0059197  | 0.0059197  | 0.0059197  |   0.0 |  0.01
Other   |            | 0.07571    |            |       |  0.09

Nlocal:     3.2768e+07 ave  3.2768e+07 max  3.2768e+07 min
Histogram: 1 0 0 0 0 0 0 0 0 0
Nghost:    1.74415e+06 ave 1.74415e+06 max 1.74415e+06 min
Histogram: 1 0 0 0 0 0 0 0 0 0
Neighs:              0 ave           0 max           0 min
Histogram: 1 0 0 0 0 0 0 0 0 0
FullNghs:  2.45673e+09 ave 2.45673e+09 max 2.45673e+09 min
Histogram: 1 0 0 0 0 0 0 0 0 0

Total # of neighbors = 2.4567301e+09
Ave neighs/atom = 74.973452
Neighbor list builds = 50
Dangerous builds not checked
Total wall time: 0:01:33
