LAMMPS (4 Feb 2025 - Development - patch_4Feb2025-76-gf0bc9ddcc9-modified)
KOKKOS mode with Kokkos version 4.5.1 is enabled (../kokkos.cpp:72)
  will use up to 1 GPU(s) per node
package kokkos
package kokkos neigh full neigh/qeq full newton off comm device pair/only off neigh/transpose on
# 3d Lennard-Jones melt

units		lj
atom_style	atomic

lattice		fcc 0.8442
Lattice spacing in x,y,z = 1.6795962 1.6795962 1.6795962
region		box block 0 $x 0 $y 0 $z
region		box block 0 320 0 $y 0 $z
region		box block 0 320 0 640 0 $z
region		box block 0 320 0 640 0 640
create_box	1 box
Created orthogonal box = (0 0 0) to (537.47078 1074.9416 1074.9416)
  4 by 16 by 16 MPI processor grid
create_atoms	1 box
Created 524288000 atoms
  using lattice units in orthogonal box = (0 0 0) to (537.47078 1074.9416 1074.9416)
  create_atoms CPU = 2.302 seconds
mass		1 1.0

velocity	all create 1.44 87287 loop geom

pair_style	lj/cut 2.5
pair_coeff	1 1 1.0 1.0 2.5

neighbor	0.3 bin
neigh_modify	delay 0 every 20 check no

fix		1 all nve
thermo          10000

run		$t
run		1000
Generated 0 of 0 mixed pair_coeff terms from geometric mixing rule
Neighbor list info ...
  update: every = 20 steps, delay = 0 steps, check = no
  max neighbors/atom: 2000, page size: 100000
  master list distance cutoff = 2.8
  ghost atom cutoff = 2.8
  binsize = 2.8, bins = 192 384 384
  1 neighbor lists, perpetual/occasional/extra = 1 0 0
  (1) pair lj/cut/kk, perpetual
      attributes: full, newton off, kokkos_device
      pair build: full/bin/kk/device
      stencil: full/bin/3d
      bin: kk/device
Per MPI rank memory allocation (min/avg/max) = 84.84 | 85.62 | 86.41 Mbytes
   Step          Temp          E_pair         E_mol          TotEng         Press     
         0   1.44          -6.7733681      0             -4.6133681     -5.0196693    
      1000   0.70384072    -5.6762218      0             -4.6204608      0.70433152   
Loop time of 3.10472 on 1024 procs for 1000 steps with 524288000 atoms

Performance: 139142.789 tau/day, 322.090 timesteps/s, 168.868 Gatom-step/s
120.4% CPU use with 1024 MPI tasks x 1 OpenMP threads

MPI task timing breakdown:
Section |  min time  |  avg time  |  max time  |%varavg| %total
---------------------------------------------------------------
Pair    | 0.010607   | 0.024872   | 0.033445   |   3.6 |  0.80
Neigh   | 0.073476   | 0.16863    | 0.54669    |  24.4 |  5.43
Comm    | 1.7366     | 2.1345     | 2.3211     |   6.8 | 68.75
Output  | 0.00058635 | 0.027786   | 0.028524   |   1.9 |  0.89
Modify  | 0.64381    | 0.7456     | 0.93849    |   4.4 | 24.01
Other   |            | 0.003355   |            |       |  0.11

Nlocal:         512000 ave      512764 max      511198 min
Histogram: 1 13 40 155 279 259 200 64 11 2
Nghost:         114528 ave      114996 max      114135 min
Histogram: 8 37 112 209 279 198 118 48 13 2
Neighs:              0 ave           0 max           0 min
Histogram: 1024 0 0 0 0 0 0 0 0 0
FullNghs:  3.83856e+07 ave 3.84758e+07 max 3.82785e+07 min
Histogram: 1 12 26 117 216 306 209 104 27 6

Total # of neighbors = 3.9306862e+10
Ave neighs/atom = 74.971889
Neighbor list builds = 50
Dangerous builds not checked
Total wall time: 0:00:17
