LAMMPS (4 Feb 2025 - Development - patch_4Feb2025-76-gf0bc9ddcc9-modified)
KOKKOS mode with Kokkos version 4.5.1 is enabled (../kokkos.cpp:72)
  will use up to 1 GPU(s) per node
package kokkos
package kokkos neigh full neigh/qeq full newton off comm device pair/only off neigh/transpose on
# 3d Lennard-Jones melt

units		lj
atom_style	atomic

lattice		fcc 0.8442
Lattice spacing in x,y,z = 1.6795962 1.6795962 1.6795962
region		box block 0 $x 0 $y 0 $z
region		box block 0 640 0 $y 0 $z
region		box block 0 640 0 640 0 $z
region		box block 0 640 0 640 0 640
create_box	1 box
Created orthogonal box = (0 0 0) to (1074.9416 1074.9416 1074.9416)
  8 by 16 by 16 MPI processor grid
create_atoms	1 box
Created 1048576000 atoms
  using lattice units in orthogonal box = (0 0 0) to (1074.9416 1074.9416 1074.9416)
  create_atoms CPU = 0.769 seconds
mass		1 1.0

velocity	all create 1.44 87287 loop geom

pair_style	lj/cut 2.5
pair_coeff	1 1 1.0 1.0 2.5

neighbor	0.3 bin
neigh_modify	delay 0 every 20 check no

fix		1 all nve
thermo          10000

run		$t
run		1000
Generated 0 of 0 mixed pair_coeff terms from geometric mixing rule
Neighbor list info ...
  update: every = 20 steps, delay = 0 steps, check = no
  max neighbors/atom: 2000, page size: 100000
  master list distance cutoff = 2.8
  ghost atom cutoff = 2.8
  binsize = 2.8, bins = 384 384 384
  1 neighbor lists, perpetual/occasional/extra = 1 0 0
  (1) pair lj/cut/kk, perpetual
      attributes: full, newton off, kokkos_device
      pair build: full/bin/kk/device
      stencil: full/bin/3d
      bin: kk/device
Per MPI rank memory allocation (min/avg/max) = 84.85 | 85.62 | 86.41 Mbytes
   Step          Temp          E_pair         E_mol          TotEng         Press     
         0   1.44          -6.7733681      0             -4.6133681     -5.0196693    
      1000   0.70386297    -5.6762562      0             -4.6204617      0.70413518   
Loop time of 3.42749 on 2048 procs for 1000 steps with 1048576000 atoms

Performance: 126039.585 tau/day, 291.758 timesteps/s, 305.931 Gatom-step/s
115.0% CPU use with 2048 MPI tasks x 1 OpenMP threads

MPI task timing breakdown:
Section |  min time  |  avg time  |  max time  |%varavg| %total
---------------------------------------------------------------
Pair    | 0.01055    | 0.024426   | 0.033595   |   3.7 |  0.71
Neigh   | 0.071341   | 0.16839    | 0.59799    |  24.8 |  4.91
Comm    | 1.8259     | 2.3552     | 2.6635     |   8.0 | 68.71
Output  | 0.00064788 | 0.029168   | 0.03021    |   2.0 |  0.85
Modify  | 0.64903    | 0.84696    | 1.1913     |   8.3 | 24.71
Other   |            | 0.003356   |            |       |  0.10

Nlocal:         512000 ave      512801 max      511298 min
Histogram: 15 49 186 384 560 511 247 79 13 4
Nghost:         114528 ave      114951 max      114058 min
Histogram: 4 14 89 292 489 530 391 178 49 12
Neighs:              0 ave           0 max           0 min
Histogram: 2048 0 0 0 0 0 0 0 0 0
FullNghs:  3.83857e+07 ave 3.84843e+07 max 3.82878e+07 min
Histogram: 6 38 121 344 520 535 327 123 29 5

Total # of neighbors = 7.8613942e+10
Ave neighs/atom = 74.972097
Neighbor list builds = 50
Dangerous builds not checked
Total wall time: 0:00:14
