LAMMPS (4 Feb 2025 - Development - patch_4Feb2025-76-gf0bc9ddcc9-modified)
KOKKOS mode with Kokkos version 4.5.1 is enabled (../kokkos.cpp:72)
  will use up to 1 GPU(s) per node
package kokkos
package kokkos neigh full neigh/qeq full newton off comm device pair/only off neigh/transpose on
# 3d Lennard-Jones melt

units		lj
atom_style	atomic

lattice		fcc 0.8442
Lattice spacing in x,y,z = 1.6795962 1.6795962 1.6795962
region		box block 0 $x 0 $y 0 $z
region		box block 0 160 0 $y 0 $z
region		box block 0 160 0 320 0 $z
region		box block 0 160 0 320 0 320
create_box	1 box
Created orthogonal box = (0 0 0) to (268.73539 537.47078 537.47078)
  2 by 4 by 8 MPI processor grid
create_atoms	1 box
Created 65536000 atoms
  using lattice units in orthogonal box = (0 0 0) to (268.73539 537.47078 537.47078)
  create_atoms CPU = 0.219 seconds
mass		1 1.0

velocity	all create 1.44 87287 loop geom

pair_style	lj/cut 2.5
pair_coeff	1 1 1.0 1.0 2.5

neighbor	0.3 bin
neigh_modify	delay 0 every 20 check no

fix		1 all nve
thermo          10000

run		$t
run		1000
Generated 0 of 0 mixed pair_coeff terms from geometric mixing rule
Neighbor list info ...
  update: every = 20 steps, delay = 0 steps, check = no
  max neighbors/atom: 2000, page size: 100000
  master list distance cutoff = 2.8
  ghost atom cutoff = 2.8
  binsize = 2.8, bins = 96 192 192
  1 neighbor lists, perpetual/occasional/extra = 1 0 0
  (1) pair lj/cut/kk, perpetual
      attributes: full, newton off, kokkos_device
      pair build: full/bin/kk/device
      stencil: full/bin/3d
      bin: kk/device
Per MPI rank memory allocation (min/avg/max) = 164.4 | 166.1 | 167.3 Mbytes
   Step          Temp          E_pair         E_mol          TotEng         Press     
         0   1.44          -6.7733681      0             -4.6133681     -5.0196693    
      1000   0.70379703    -5.6761512      0             -4.6204556      0.7045685    
Loop time of 3.53832 on 64 procs for 1000 steps with 65536000 atoms

Performance: 122092.002 tau/day, 282.620 timesteps/s, 18.522 Gatom-step/s
118.2% CPU use with 64 MPI tasks x 1 OpenMP threads

MPI task timing breakdown:
Section |  min time  |  avg time  |  max time  |%varavg| %total
---------------------------------------------------------------
Pair    | 0.011709   | 0.01249    | 0.013365   |   0.3 |  0.35
Neigh   | 0.13144    | 0.24372    | 0.59017    |  22.1 |  6.89
Comm    | 1.4137     | 1.8272     | 2.0734     |   9.7 | 51.64
Output  | 0.0003852  | 0.029878   | 0.0312     |   3.1 |  0.84
Modify  | 1.2862     | 1.4209     | 1.535      |   5.1 | 40.16
Other   |            | 0.004111   |            |       |  0.12

Nlocal:      1.024e+06 ave 1.02436e+06 max 1.02336e+06 min
Histogram: 1 3 2 6 4 6 12 12 7 11
Nghost:         180635 ave      180926 max      180221 min
Histogram: 3 2 4 3 8 11 13 6 11 3
Neighs:              0 ave           0 max           0 min
Histogram: 64 0 0 0 0 0 0 0 0 0
FullNghs:  7.67723e+07 ave 7.68226e+07 max  7.6687e+07 min
Histogram: 2 2 1 7 5 8 9 13 11 6

Total # of neighbors = 4.91343e+09
Ave neighs/atom = 74.972992
Neighbor list builds = 50
Dangerous builds not checked
Total wall time: 0:00:04
