LAMMPS (4 Feb 2025 - Development - patch_4Feb2025-76-gf0bc9ddcc9-modified)
KOKKOS mode with Kokkos version 4.5.1 is enabled (../kokkos.cpp:72)
  will use up to 1 GPU(s) per node
package kokkos
package kokkos neigh full neigh/qeq full newton off comm device pair/only off neigh/transpose on
# 3d Lennard-Jones melt

units		lj
atom_style	atomic

lattice		fcc 0.8442
Lattice spacing in x,y,z = 1.6795962 1.6795962 1.6795962
region		box block 0 $x 0 $y 0 $z
region		box block 0 320 0 $y 0 $z
region		box block 0 320 0 320 0 $z
region		box block 0 320 0 320 0 320
create_box	1 box
Created orthogonal box = (0 0 0) to (537.47078 537.47078 537.47078)
  4 by 4 by 8 MPI processor grid
create_atoms	1 box
Created 131072000 atoms
  using lattice units in orthogonal box = (0 0 0) to (537.47078 537.47078 537.47078)
  create_atoms CPU = 0.222 seconds
mass		1 1.0

velocity	all create 1.44 87287 loop geom

pair_style	lj/cut 2.5
pair_coeff	1 1 1.0 1.0 2.5

neighbor	0.3 bin
neigh_modify	delay 0 every 20 check no

fix		1 all nve
thermo          10000

run		$t
run		1000
Generated 0 of 0 mixed pair_coeff terms from geometric mixing rule
Neighbor list info ...
  update: every = 20 steps, delay = 0 steps, check = no
  max neighbors/atom: 2000, page size: 100000
  master list distance cutoff = 2.8
  ghost atom cutoff = 2.8
  binsize = 2.8, bins = 192 192 192
  1 neighbor lists, perpetual/occasional/extra = 1 0 0
  (1) pair lj/cut/kk, perpetual
      attributes: full, newton off, kokkos_device
      pair build: full/bin/kk/device
      stencil: full/bin/3d
      bin: kk/device
Per MPI rank memory allocation (min/avg/max) = 164 | 166.1 | 167.3 Mbytes
   Step          Temp          E_pair         E_mol          TotEng         Press     
         0   1.44          -6.7733681      0             -4.6133681     -5.0196693    
      1000   0.70384886    -5.6762335      0             -4.6204602      0.70430957   
Loop time of 3.71652 on 128 procs for 1000 steps with 131072000 atoms

Performance: 116237.905 tau/day, 269.069 timesteps/s, 35.267 Gatom-step/s
118.6% CPU use with 128 MPI tasks x 1 OpenMP threads

MPI task timing breakdown:
Section |  min time  |  avg time  |  max time  |%varavg| %total
---------------------------------------------------------------
Pair    | 0.011737   | 0.012494   | 0.013647   |   0.4 |  0.34
Neigh   | 0.13346    | 0.2429     | 0.77645    |  24.5 |  6.54
Comm    | 1.3753     | 1.9938     | 2.2118     |   9.3 | 53.65
Output  | 0.00038103 | 0.030445   | 0.031846   |   3.1 |  0.82
Modify  | 1.251      | 1.4327     | 1.5814     |   6.4 | 38.55
Other   |            | 0.004131   |            |       |  0.11

Nlocal:      1.024e+06 ave 1.02485e+06 max 1.02332e+06 min
Histogram: 3 8 13 20 35 27 17 1 3 1
Nghost:         180631 ave      180988 max      180205 min
Histogram: 3 6 9 10 24 24 20 17 12 3
Neighs:              0 ave           0 max           0 min
Histogram: 128 0 0 0 0 0 0 0 0 0
FullNghs:  7.67715e+07 ave 7.68807e+07 max 7.66773e+07 min
Histogram: 3 4 19 12 38 26 17 5 3 1

Total # of neighbors = 9.8267558e+09
Ave neighs/atom = 74.972197
Neighbor list builds = 50
Dangerous builds not checked
Total wall time: 0:00:05
