LAMMPS (4 Feb 2025 - Development - patch_4Feb2025-76-gf0bc9ddcc9-modified)
KOKKOS mode with Kokkos version 4.5.1 is enabled (../kokkos.cpp:72)
  will use up to 1 GPU(s) per node
package kokkos
package kokkos neigh full neigh/qeq full newton off comm device pair/only off neigh/transpose on
# 3d Lennard-Jones melt

units		lj
atom_style	atomic

lattice		fcc 0.8442
Lattice spacing in x,y,z = 1.6795962 1.6795962 1.6795962
region		box block 0 $x 0 $y 0 $z
region		box block 0 160 0 $y 0 $z
region		box block 0 160 0 160 0 $z
region		box block 0 160 0 160 0 320
create_box	1 box
Created orthogonal box = (0 0 0) to (268.73539 268.73539 537.47078)
  2 by 2 by 8 MPI processor grid
create_atoms	1 box
Created 32768000 atoms
  using lattice units in orthogonal box = (0 0 0) to (268.73539 268.73539 537.47078)
  create_atoms CPU = 0.207 seconds
mass		1 1.0

velocity	all create 1.44 87287 loop geom

pair_style	lj/cut 2.5
pair_coeff	1 1 1.0 1.0 2.5

neighbor	0.3 bin
neigh_modify	delay 0 every 20 check no

fix		1 all nve
thermo          10000

run		$t
run		1000
Generated 0 of 0 mixed pair_coeff terms from geometric mixing rule
Neighbor list info ...
  update: every = 20 steps, delay = 0 steps, check = no
  max neighbors/atom: 2000, page size: 100000
  master list distance cutoff = 2.8
  ghost atom cutoff = 2.8
  binsize = 2.8, bins = 96 96 192
  1 neighbor lists, perpetual/occasional/extra = 1 0 0
  (1) pair lj/cut/kk, perpetual
      attributes: full, newton off, kokkos_device
      pair build: full/bin/kk/device
      stencil: full/bin/3d
      bin: kk/device
Per MPI rank memory allocation (min/avg/max) = 164.9 | 166.1 | 167.3 Mbytes
   Step          Temp          E_pair         E_mol          TotEng         Press     
         0   1.44          -6.7733681      0             -4.6133681     -5.0196693    
      1000   0.70381028    -5.6761714      0             -4.6204561      0.70457073   
Loop time of 3.45057 on 32 procs for 1000 steps with 32768000 atoms

Performance: 125196.538 tau/day, 289.807 timesteps/s, 9.496 Gatom-step/s
117.7% CPU use with 32 MPI tasks x 1 OpenMP threads

MPI task timing breakdown:
Section |  min time  |  avg time  |  max time  |%varavg| %total
---------------------------------------------------------------
Pair    | 0.011814   | 0.012541   | 0.013323   |   0.4 |  0.36
Neigh   | 0.13061    | 0.26423    | 0.52179    |  22.1 |  7.66
Comm    | 1.5265     | 1.7619     | 1.9766     |   9.9 | 51.06
Output  | 0.00032027 | 0.0016763  | 0.0021739  |   1.0 |  0.05
Modify  | 1.3253     | 1.4061     | 1.4727     |   3.2 | 40.75
Other   |            | 0.004156   |            |       |  0.12

Nlocal:      1.024e+06 ave 1.02436e+06 max 1.02348e+06 min
Histogram: 2 2 2 2 1 6 6 3 4 4
Nghost:         180602 ave      180921 max      180281 min
Histogram: 2 2 3 4 5 2 6 4 2 2
Neighs:              0 ave           0 max           0 min
Histogram: 32 0 0 0 0 0 0 0 0 0
FullNghs:  7.67728e+07 ave 7.68235e+07 max 7.66988e+07 min
Histogram: 2 0 4 1 2 5 6 5 3 4

Total # of neighbors = 2.4567301e+09
Ave neighs/atom = 74.973452
Neighbor list builds = 50
Dangerous builds not checked
Total wall time: 0:00:04
