LAMMPS (4 Feb 2025 - Development - patch_4Feb2025-76-gf0bc9ddcc9-modified)
KOKKOS mode with Kokkos version 4.5.1 is enabled (../kokkos.cpp:72)
  will use up to 1 GPU(s) per node
package kokkos
package kokkos neigh full neigh/qeq full newton off comm device pair/only off neigh/transpose on
# 3d Lennard-Jones melt

units		lj
atom_style	atomic

lattice		fcc 0.8442
Lattice spacing in x,y,z = 1.6795962 1.6795962 1.6795962
region		box block 0 $x 0 $y 0 $z
region		box block 0 80 0 $y 0 $z
region		box block 0 80 0 80 0 $z
region		box block 0 80 0 80 0 160
create_box	1 box
Created orthogonal box = (0 0 0) to (134.3677 134.3677 268.73539)
  1 by 2 by 4 MPI processor grid
create_atoms	1 box
Created 4096000 atoms
  using lattice units in orthogonal box = (0 0 0) to (134.3677 134.3677 268.73539)
  create_atoms CPU = 0.111 seconds
mass		1 1.0

velocity	all create 1.44 87287 loop geom

pair_style	lj/cut 2.5
pair_coeff	1 1 1.0 1.0 2.5

neighbor	0.3 bin
neigh_modify	delay 0 every 20 check no

fix		1 all nve
thermo          10000

run		$t
run		1000
Generated 0 of 0 mixed pair_coeff terms from geometric mixing rule
Neighbor list info ...
  update: every = 20 steps, delay = 0 steps, check = no
  max neighbors/atom: 2000, page size: 100000
  master list distance cutoff = 2.8
  ghost atom cutoff = 2.8
  binsize = 2.8, bins = 48 48 96
  1 neighbor lists, perpetual/occasional/extra = 1 0 0
  (1) pair lj/cut/kk, perpetual
      attributes: full, newton off, kokkos_device
      pair build: full/bin/kk/device
      stencil: full/bin/3d
      bin: kk/device
Per MPI rank memory allocation (min/avg/max) = 85.97 | 86.17 | 86.27 Mbytes
   Step          Temp          E_pair         E_mol          TotEng         Press     
         0   1.44          -6.7733681      0             -4.6133686     -5.0196696    
      1000   0.70377619    -5.6761254      0             -4.6204614      0.70407903   
Loop time of 1.88737 on 8 procs for 1000 steps with 4096000 atoms

Performance: 228890.012 tau/day, 529.838 timesteps/s, 2.170 Gatom-step/s
125.6% CPU use with 8 MPI tasks x 1 OpenMP threads

MPI task timing breakdown:
Section |  min time  |  avg time  |  max time  |%varavg| %total
---------------------------------------------------------------
Pair    | 0.011317   | 0.021623   | 0.031119   |   3.6 |  1.15
Neigh   | 0.073228   | 0.19635    | 0.56081    |  34.5 | 10.40
Comm    | 0.60772    | 0.98277    | 1.1126     |  16.1 | 52.07
Output  | 0.00036082 | 0.021532   | 0.027962   |   7.3 |  1.14
Modify  | 0.64865    | 0.66198    | 0.69277    |   1.7 | 35.07
Other   |            | 0.003113   |            |       |  0.16

Nlocal:         512000 ave      512311 max      511728 min
Histogram: 2 1 1 0 0 0 2 0 0 2
Nghost:         114448 ave      114791 max      114301 min
Histogram: 3 2 0 0 0 2 0 0 0 1
Neighs:              0 ave           0 max           0 min
Histogram: 8 0 0 0 0 0 0 0 0 0
FullNghs:  3.83853e+07 ave 3.84287e+07 max 3.83506e+07 min
Histogram: 2 1 0 1 0 2 0 0 0 2

Total # of neighbors = 3.0708275e+08
Ave neighs/atom = 74.971374
Neighbor list builds = 50
Dangerous builds not checked
Total wall time: 0:00:03
