LAMMPS (4 Feb 2025 - Development - patch_4Feb2025-76-gf0bc9ddcc9-modified)
KOKKOS mode with Kokkos version 4.5.1 is enabled (../kokkos.cpp:72)
  will use up to 1 GPU(s) per node
package kokkos
package kokkos neigh full neigh/qeq full newton off comm device pair/only off neigh/transpose on
# 3d Lennard-Jones melt

units		lj
atom_style	atomic

lattice		fcc 0.8442
Lattice spacing in x,y,z = 1.6795962 1.6795962 1.6795962
region		box block 0 $x 0 $y 0 $z
region		box block 0 40 0 $y 0 $z
region		box block 0 40 0 80 0 $z
region		box block 0 40 0 80 0 80
create_box	1 box
Created orthogonal box = (0 0 0) to (67.183848 134.3677 134.3677)
  1 by 2 by 2 MPI processor grid
create_atoms	1 box
Created 1024000 atoms
  using lattice units in orthogonal box = (0 0 0) to (67.183848 134.3677 134.3677)
  create_atoms CPU = 0.063 seconds
mass		1 1.0

velocity	all create 1.44 87287 loop geom

pair_style	lj/cut 2.5
pair_coeff	1 1 1.0 1.0 2.5

neighbor	0.3 bin
neigh_modify	delay 0 every 20 check no

fix		1 all nve
thermo          10000

run		$t
run		1000
Generated 0 of 0 mixed pair_coeff terms from geometric mixing rule
Neighbor list info ...
  update: every = 20 steps, delay = 0 steps, check = no
  max neighbors/atom: 2000, page size: 100000
  master list distance cutoff = 2.8
  ghost atom cutoff = 2.8
  binsize = 2.8, bins = 24 48 48
  1 neighbor lists, perpetual/occasional/extra = 1 0 0
  (1) pair lj/cut/kk, perpetual
      attributes: full, newton off, kokkos_device
      pair build: full/bin/kk/device
      stencil: full/bin/3d
      bin: kk/device
Per MPI rank memory allocation (min/avg/max) = 45.19 | 45.19 | 45.19 Mbytes
   Step          Temp          E_pair         E_mol          TotEng         Press     
         0   1.44          -6.7733681      0             -4.6133702     -5.0196705    
      1000   0.70419561    -5.6767685      0             -4.6204761      0.70292763   
Loop time of 0.816487 on 4 procs for 1000 steps with 1024000 atoms

Performance: 529096.096 tau/day, 1224.759 timesteps/s, 1.254 Gatom-step/s
155.6% CPU use with 4 MPI tasks x 1 OpenMP threads

MPI task timing breakdown:
Section |  min time  |  avg time  |  max time  |%varavg| %total
---------------------------------------------------------------
Pair    | 0.0096339  | 0.012379   | 0.019815   |   3.9 |  1.52
Neigh   | 0.063928   | 0.075333   | 0.1022     |   5.7 |  9.23
Comm    | 0.3353     | 0.37672    | 0.3952     |   4.0 | 46.14
Output  | 0.00019705 | 0.00026204 | 0.00030955 |   0.0 |  0.03
Modify  | 0.34574    | 0.3502     | 0.35713    |   0.8 | 42.89
Other   |            | 0.001592   |            |       |  0.20

Nlocal:         256000 ave      256109 max      255939 min
Histogram: 2 0 0 1 0 0 0 0 0 1
Nghost:          69845 ave       69978 max       69765 min
Histogram: 2 0 0 0 1 0 0 0 0 1
Neighs:              0 ave           0 max           0 min
Histogram: 4 0 0 0 0 0 0 0 0 0
FullNghs:  1.91928e+07 ave  1.9206e+07 max 1.91832e+07 min
Histogram: 1 0 0 2 0 0 0 0 0 1

Total # of neighbors = 76771362
Ave neighs/atom = 74.972033
Neighbor list builds = 50
Dangerous builds not checked
Total wall time: 0:00:01
