LAMMPS (4 Feb 2025 - Development - patch_4Feb2025-76-gf0bc9ddcc9-modified)
KOKKOS mode with Kokkos version 4.5.1 is enabled (../kokkos.cpp:72)
  will use up to 1 GPU(s) per node
package kokkos
package kokkos neigh full neigh/qeq full newton off comm device pair/only off neigh/transpose on
# 3d Lennard-Jones melt

units		lj
atom_style	atomic

lattice		fcc 0.8442
Lattice spacing in x,y,z = 1.6795962 1.6795962 1.6795962
region		box block 0 $x 0 $y 0 $z
region		box block 0 80 0 $y 0 $z
region		box block 0 80 0 80 0 $z
region		box block 0 80 0 80 0 160
create_box	1 box
Created orthogonal box = (0 0 0) to (134.3677 134.3677 268.73539)
  1 by 1 by 2 MPI processor grid
create_atoms	1 box
Created 4096000 atoms
  using lattice units in orthogonal box = (0 0 0) to (134.3677 134.3677 268.73539)
  create_atoms CPU = 0.403 seconds
mass		1 1.0

velocity	all create 1.44 87287 loop geom

pair_style	lj/cut 2.5
pair_coeff	1 1 1.0 1.0 2.5

neighbor	0.3 bin
neigh_modify	delay 0 every 20 check no

fix		1 all nve
thermo          10000

run		$t
run		1000
Generated 0 of 0 mixed pair_coeff terms from geometric mixing rule
Neighbor list info ...
  update: every = 20 steps, delay = 0 steps, check = no
  max neighbors/atom: 2000, page size: 100000
  master list distance cutoff = 2.8
  ghost atom cutoff = 2.8
  binsize = 2.8, bins = 48 48 96
  1 neighbor lists, perpetual/occasional/extra = 1 0 0
  (1) pair lj/cut/kk, perpetual
      attributes: full, newton off, kokkos_device
      pair build: full/bin/kk/device
      stencil: full/bin/3d
      bin: kk/device
Per MPI rank memory allocation (min/avg/max) = 310.6 | 310.6 | 310.6 Mbytes
   Step          Temp          E_pair         E_mol          TotEng         Press     
         0   1.44          -6.7733681      0             -4.6133686     -5.0196696    
      1000   0.70377619    -5.6761254      0             -4.6204614      0.70407903   
Loop time of 3.69576 on 2 procs for 1000 steps with 4096000 atoms

Performance: 116890.857 tau/day, 270.581 timesteps/s, 1.108 Gatom-step/s
102.4% CPU use with 2 MPI tasks x 1 OpenMP threads

MPI task timing breakdown:
Section |  min time  |  avg time  |  max time  |%varavg| %total
---------------------------------------------------------------
Pair    | 0.013242   | 0.013492   | 0.013743   |   0.2 |  0.37
Neigh   | 0.51349    | 0.65131    | 0.78912    |  17.1 | 17.62
Comm    | 0.63906    | 0.77432    | 0.90958    |  15.4 | 20.95
Output  | 0.00021695 | 0.0017791  | 0.0033413  |   3.7 |  0.05
Modify  | 2.2435     | 2.248      | 2.2524     |   0.3 | 60.83
Other   |            | 0.006874   |            |       |  0.19

Nlocal:      2.048e+06 ave  2.0482e+06 max  2.0478e+06 min
Histogram: 1 0 0 0 0 0 0 0 0 1
Nghost:         268059 ave      268292 max      267826 min
Histogram: 1 0 0 0 0 0 0 0 0 1
Neighs:              0 ave           0 max           0 min
Histogram: 2 0 0 0 0 0 0 0 0 0
FullNghs:  1.53541e+08 ave 1.53588e+08 max 1.53495e+08 min
Histogram: 1 0 0 0 0 0 0 0 0 1

Total # of neighbors = 3.0708273e+08
Ave neighs/atom = 74.97137
Neighbor list builds = 50
Dangerous builds not checked
Total wall time: 0:00:05
