LAMMPS (4 Feb 2025 - Development - patch_4Feb2025-76-gf0bc9ddcc9-modified)
KOKKOS mode with Kokkos version 4.5.1 is enabled (../kokkos.cpp:72)
  will use up to 1 GPU(s) per node
package kokkos
package kokkos neigh full neigh/qeq full newton off comm device pair/only off neigh/transpose on
# 3d Lennard-Jones melt

units		lj
atom_style	atomic

lattice		fcc 0.8442
Lattice spacing in x,y,z = 1.6795962 1.6795962 1.6795962
region		box block 0 $x 0 $y 0 $z
region		box block 0 640 0 $y 0 $z
region		box block 0 640 0 640 0 $z
region		box block 0 640 0 640 0 1280
create_box	1 box
Created orthogonal box = (0 0 0) to (1074.9416 1074.9416 2149.8831)
  8 by 8 by 16 MPI processor grid
create_atoms	1 box
Created 2097152000 atoms
  using lattice units in orthogonal box = (0 0 0) to (1074.9416 1074.9416 2149.8831)
  create_atoms CPU = 0.472 seconds
mass		1 1.0

velocity	all create 1.44 87287 loop geom

pair_style	lj/cut 2.5
pair_coeff	1 1 1.0 1.0 2.5

neighbor	0.3 bin
neigh_modify	delay 0 every 20 check no

fix		1 all nve
thermo          10000

run		$t
run		1000
Generated 0 of 0 mixed pair_coeff terms from geometric mixing rule
Neighbor list info ...
  update: every = 20 steps, delay = 0 steps, check = no
  max neighbors/atom: 2000, page size: 100000
  master list distance cutoff = 2.8
  ghost atom cutoff = 2.8
  binsize = 2.8, bins = 384 384 768
  1 neighbor lists, perpetual/occasional/extra = 1 0 0
  (1) pair lj/cut/kk, perpetual
      attributes: full, newton off, kokkos_device
      pair build: full/bin/kk/device
      stencil: full/bin/3d
      bin: kk/device
Per MPI rank memory allocation (min/avg/max) = 308.1 | 310.3 | 312.5 Mbytes
   Step          Temp          E_pair         E_mol          TotEng         Press     
         0   1.44          -6.7733681      0             -4.6133681     -5.0196693    
      1000   0.70385744    -5.6762474      0             -4.6204612      0.70421468   
Loop time of 8.08045 on 1024 procs for 1000 steps with 2097152000 atoms

Performance: 53462.383 tau/day, 123.756 timesteps/s, 259.534 Gatom-step/s
110.4% CPU use with 1024 MPI tasks x 1 OpenMP threads

MPI task timing breakdown:
Section |  min time  |  avg time  |  max time  |%varavg| %total
---------------------------------------------------------------
Pair    | 0.012701   | 0.014212   | 0.030854   |   1.6 |  0.18
Neigh   | 0.26316    | 0.53699    | 1.9398     |  38.7 |  6.65
Comm    | 3.7006     | 4.7603     | 5.3956     |  12.0 | 58.91
Output  | 0.00058664 | 0.073853   | 0.078135   |   3.9 |  0.91
Modify  | 2.2554     | 2.6881     | 3.0533     |   9.0 | 33.27
Other   |            | 0.006985   |            |       |  0.09

Nlocal:      2.048e+06 ave 2.04918e+06 max 2.04681e+06 min
Histogram: 2 16 75 155 270 253 160 68 21 4
Nghost:         268187 ave      268828 max      267599 min
Histogram: 17 30 105 192 230 191 155 82 19 3
Neighs:              0 ave           0 max           0 min
Histogram: 1024 0 0 0 0 0 0 0 0 0
FullNghs:  1.53543e+08 ave 1.53706e+08 max 1.53379e+08 min
Histogram: 2 16 69 155 278 250 171 64 16 3

Total # of neighbors = 1.5722807e+11
Ave neighs/atom = 74.972187
Neighbor list builds = 50
Dangerous builds not checked
Total wall time: 0:00:10
