LAMMPS (4 Feb 2025 - Development - patch_4Feb2025-76-gf0bc9ddcc9-modified)
KOKKOS mode with Kokkos version 4.5.1 is enabled (../kokkos.cpp:72)
  will use up to 1 GPU(s) per node
package kokkos
package kokkos neigh full neigh/qeq full newton off comm device pair/only off neigh/transpose on
# 3d Lennard-Jones melt

units		lj
atom_style	atomic

lattice		fcc 0.8442
Lattice spacing in x,y,z = 1.6795962 1.6795962 1.6795962
region		box block 0 $x 0 $y 0 $z
region		box block 0 640 0 $y 0 $z
region		box block 0 640 0 640 0 $z
region		box block 0 640 0 640 0 640
create_box	1 box
Created orthogonal box = (0 0 0) to (1074.9416 1074.9416 1074.9416)
  4 by 8 by 8 MPI processor grid
create_atoms	1 box
Created 1048576000 atoms
  using lattice units in orthogonal box = (0 0 0) to (1074.9416 1074.9416 1074.9416)
  create_atoms CPU = 0.884 seconds
mass		1 1.0

velocity	all create 1.44 87287 loop geom

pair_style	lj/cut 2.5
pair_coeff	1 1 1.0 1.0 2.5

neighbor	0.3 bin
neigh_modify	delay 0 every 20 check no

fix		1 all nve
thermo          10000

run		$t
run		1000
Generated 0 of 0 mixed pair_coeff terms from geometric mixing rule
Neighbor list info ...
  update: every = 20 steps, delay = 0 steps, check = no
  max neighbors/atom: 2000, page size: 100000
  master list distance cutoff = 2.8
  ghost atom cutoff = 2.8
  binsize = 2.8, bins = 384 384 384
  1 neighbor lists, perpetual/occasional/extra = 1 0 0
  (1) pair lj/cut/kk, perpetual
      attributes: full, newton off, kokkos_device
      pair build: full/bin/kk/device
      stencil: full/bin/3d
      bin: kk/device
Per MPI rank memory allocation (min/avg/max) = 604.2 | 610.2 | 614.4 Mbytes
   Step          Temp          E_pair         E_mol          TotEng         Press     
         0   1.44          -6.7733681      0             -4.6133681     -5.0196693    
      1000   0.70386297    -5.6762561      0             -4.6204617      0.7041353    
Loop time of 22.0357 on 256 procs for 1000 steps with 1048576000 atoms

Performance: 19604.573 tau/day, 45.381 timesteps/s, 47.585 Gatom-step/s
102.1% CPU use with 256 MPI tasks x 1 OpenMP threads

MPI task timing breakdown:
Section |  min time  |  avg time  |  max time  |%varavg| %total
---------------------------------------------------------------
Pair    | 0.016794   | 0.028888   | 0.041673   |   2.9 |  0.13
Neigh   | 0.5426     | 1.467      | 4.7325     |  89.0 |  6.66
Comm    | 9.8926     | 13.601     | 14.968     |  31.5 | 61.72
Output  | 0.00092668 | 0.25716    | 0.2651     |   7.4 |  1.17
Modify  | 6.2069     | 6.6657     | 7.1008     |   6.5 | 30.25
Other   |            | 0.01617    |            |       |  0.07

Nlocal:      4.096e+06 ave 4.09732e+06 max 4.09479e+06 min
Histogram: 5 14 27 45 47 49 34 24 6 5
Nghost:         443311 ave      444128 max      442530 min
Histogram: 3 8 26 39 58 58 33 22 6 3
Neighs:              0 ave           0 max           0 min
Histogram: 256 0 0 0 0 0 0 0 0 0
FullNghs:  3.07086e+08 ave 3.07271e+08 max  3.0692e+08 min
Histogram: 4 10 34 41 63 41 35 19 6 3

Total # of neighbors = 7.8613942e+10
Ave neighs/atom = 74.972097
Neighbor list builds = 50
Dangerous builds not checked
Total wall time: 0:00:25
