LAMMPS (4 Feb 2025 - Development - patch_4Feb2025-76-gf0bc9ddcc9-modified)
KOKKOS mode with Kokkos version 4.5.1 is enabled (../kokkos.cpp:72)
  will use up to 1 GPU(s) per node
package kokkos
package kokkos neigh full neigh/qeq full newton off comm device pair/only off neigh/transpose on
# 3d Lennard-Jones melt

units		lj
atom_style	atomic

lattice		fcc 0.8442
Lattice spacing in x,y,z = 1.6795962 1.6795962 1.6795962
region		box block 0 $x 0 $y 0 $z
region		box block 0 160 0 $y 0 $z
region		box block 0 160 0 160 0 $z
region		box block 0 160 0 160 0 160
create_box	1 box
Created orthogonal box = (0 0 0) to (268.73539 268.73539 268.73539)
  2 by 4 by 4 MPI processor grid
create_atoms	1 box
Created 16384000 atoms
  using lattice units in orthogonal box = (0 0 0) to (268.73539 268.73539 268.73539)
  create_atoms CPU = 0.134 seconds
mass		1 1.0

velocity	all create 1.44 87287 loop geom

pair_style	lj/cut 2.5
pair_coeff	1 1 1.0 1.0 2.5

neighbor	0.3 bin
neigh_modify	delay 0 every 20 check no

fix		1 all nve
thermo          10000

run		$t
run		1000
Generated 0 of 0 mixed pair_coeff terms from geometric mixing rule
Neighbor list info ...
  update: every = 20 steps, delay = 0 steps, check = no
  max neighbors/atom: 2000, page size: 100000
  master list distance cutoff = 2.8
  ghost atom cutoff = 2.8
  binsize = 2.8, bins = 96 96 96
  1 neighbor lists, perpetual/occasional/extra = 1 0 0
  (1) pair lj/cut/kk, perpetual
      attributes: full, newton off, kokkos_device
      pair build: full/bin/kk/device
      stencil: full/bin/3d
      bin: kk/device
Per MPI rank memory allocation (min/avg/max) = 85.29 | 85.88 | 86.27 Mbytes
   Step          Temp          E_pair         E_mol          TotEng         Press     
         0   1.44          -6.7733681      0             -4.6133682     -5.0196693    
      1000   0.70395271    -5.676399       0             -4.62047        0.70361385   
Loop time of 2.35783 on 32 procs for 1000 steps with 16384000 atoms

Performance: 183218.993 tau/day, 424.118 timesteps/s, 6.949 Gatom-step/s
126.5% CPU use with 32 MPI tasks x 1 OpenMP threads

MPI task timing breakdown:
Section |  min time  |  avg time  |  max time  |%varavg| %total
---------------------------------------------------------------
Pair    | 0.010621   | 0.024727   | 0.032077   |   4.6 |  1.05
Neigh   | 0.074435   | 0.16475    | 0.50306    |  25.4 |  6.99
Comm    | 1.1177     | 1.4598     | 1.593      |   8.8 | 61.91
Output  | 0.0017458  | 0.022959   | 0.02396    |   2.5 |  0.97
Modify  | 0.63584    | 0.68212    | 0.75127    |   3.3 | 28.93
Other   |            | 0.003474   |            |       |  0.15

Nlocal:         512000 ave      512349 max      511562 min
Histogram: 1 0 3 3 4 8 6 2 3 2
Nghost:         114535 ave      114751 max      114221 min
Histogram: 2 0 1 3 5 5 7 2 3 4
Neighs:              0 ave           0 max           0 min
Histogram: 32 0 0 0 0 0 0 0 0 0
FullNghs:  3.83849e+07 ave 3.84344e+07 max 3.83285e+07 min
Histogram: 1 1 3 4 4 9 2 4 2 2

Total # of neighbors = 1.2283158e+09
Ave neighs/atom = 74.970447
Neighbor list builds = 50
Dangerous builds not checked
Total wall time: 0:00:03
