LAMMPS (4 Feb 2025 - Development - patch_4Feb2025-76-gf0bc9ddcc9-modified)
KOKKOS mode with Kokkos version 4.5.1 is enabled (../kokkos.cpp:72)
  will use up to 1 GPU(s) per node
package kokkos
package kokkos neigh full neigh/qeq full newton off comm device pair/only off neigh/transpose on
# 3d Lennard-Jones melt

units		lj
atom_style	atomic

lattice		fcc 0.8442
Lattice spacing in x,y,z = 1.6795962 1.6795962 1.6795962
region		box block 0 $x 0 $y 0 $z
region		box block 0 320 0 $y 0 $z
region		box block 0 320 0 320 0 $z
region		box block 0 320 0 320 0 640
create_box	1 box
Created orthogonal box = (0 0 0) to (537.47078 537.47078 1074.9416)
  4 by 4 by 16 MPI processor grid
create_atoms	1 box
Created 262144000 atoms
  using lattice units in orthogonal box = (0 0 0) to (537.47078 537.47078 1074.9416)
  create_atoms CPU = 0.223 seconds
mass		1 1.0

velocity	all create 1.44 87287 loop geom

pair_style	lj/cut 2.5
pair_coeff	1 1 1.0 1.0 2.5

neighbor	0.3 bin
neigh_modify	delay 0 every 20 check no

fix		1 all nve
thermo          10000

run		$t
run		1000
Generated 0 of 0 mixed pair_coeff terms from geometric mixing rule
Neighbor list info ...
  update: every = 20 steps, delay = 0 steps, check = no
  max neighbors/atom: 2000, page size: 100000
  master list distance cutoff = 2.8
  ghost atom cutoff = 2.8
  binsize = 2.8, bins = 192 192 384
  1 neighbor lists, perpetual/occasional/extra = 1 0 0
  (1) pair lj/cut/kk, perpetual
      attributes: full, newton off, kokkos_device
      pair build: full/bin/kk/device
      stencil: full/bin/3d
      bin: kk/device
Per MPI rank memory allocation (min/avg/max) = 164 | 165.8 | 167.3 Mbytes
   Step          Temp          E_pair         E_mol          TotEng         Press     
         0   1.44          -6.7733681      0             -4.6133681     -5.0196693    
      1000   0.70383421    -5.6762124      0             -4.6204611      0.70436863   
Loop time of 3.79602 on 256 procs for 1000 steps with 262144000 atoms

Performance: 113803.510 tau/day, 263.434 timesteps/s, 69.058 Gatom-step/s
119.1% CPU use with 256 MPI tasks x 1 OpenMP threads

MPI task timing breakdown:
Section |  min time  |  avg time  |  max time  |%varavg| %total
---------------------------------------------------------------
Pair    | 0.011493   | 0.012573   | 0.014169   |   0.4 |  0.33
Neigh   | 0.13278    | 0.24389    | 0.68452    |  22.1 |  6.42
Comm    | 1.5167     | 2.068      | 2.2927     |   7.8 | 54.48
Output  | 0.00046714 | 0.030713   | 0.031357   |   1.1 |  0.81
Modify  | 1.235      | 1.4367     | 1.6214     |   6.5 | 37.85
Other   |            | 0.004128   |            |       |  0.11

Nlocal:      1.024e+06 ave 1.02468e+06 max 1.02336e+06 min
Histogram: 5 14 31 27 48 53 50 16 10 2
Nghost:         180632 ave      181033 max      180014 min
Histogram: 1 1 5 23 40 57 49 49 21 10
Neighs:              0 ave           0 max           0 min
Histogram: 256 0 0 0 0 0 0 0 0 0
FullNghs:  7.67718e+07 ave 7.68588e+07 max 7.66836e+07 min
Histogram: 5 14 27 29 42 53 49 24 5 8

Total # of neighbors = 1.965357e+10
Ave neighs/atom = 74.972419
Neighbor list builds = 50
Dangerous builds not checked
Total wall time: 0:00:05
