LAMMPS (4 Feb 2025 - Development - patch_4Feb2025-76-gf0bc9ddcc9-modified)
KOKKOS mode with Kokkos version 4.5.1 is enabled (../kokkos.cpp:72)
  will use up to 1 GPU(s) per node
package kokkos
package kokkos neigh full neigh/qeq full newton off comm device pair/only off neigh/transpose on
# 3d Lennard-Jones melt

units		lj
atom_style	atomic

lattice		fcc 0.8442
Lattice spacing in x,y,z = 1.6795962 1.6795962 1.6795962
region		box block 0 $x 0 $y 0 $z
region		box block 0 320 0 $y 0 $z
region		box block 0 320 0 640 0 $z
region		box block 0 320 0 640 0 640
create_box	1 box
Created orthogonal box = (0 0 0) to (537.47078 1074.9416 1074.9416)
  8 by 16 by 16 MPI processor grid
create_atoms	1 box
Created 524288000 atoms
  using lattice units in orthogonal box = (0 0 0) to (537.47078 1074.9416 1074.9416)
  create_atoms CPU = 0.069 seconds
mass		1 1.0

velocity	all create 1.44 87287 loop geom

pair_style	lj/cut 2.5
pair_coeff	1 1 1.0 1.0 2.5

neighbor	0.3 bin
neigh_modify	delay 0 every 20 check no

fix		1 all nve
thermo          10000

run		$t
run		1000
Generated 0 of 0 mixed pair_coeff terms from geometric mixing rule
Neighbor list info ...
  update: every = 20 steps, delay = 0 steps, check = no
  max neighbors/atom: 2000, page size: 100000
  master list distance cutoff = 2.8
  ghost atom cutoff = 2.8
  binsize = 2.8, bins = 192 384 384
  1 neighbor lists, perpetual/occasional/extra = 1 0 0
  (1) pair lj/cut/kk, perpetual
      attributes: full, newton off, kokkos_device
      pair build: full/bin/kk/device
      stencil: full/bin/3d
      bin: kk/device
Per MPI rank memory allocation (min/avg/max) = 44.25 | 45.01 | 45.45 Mbytes
   Step          Temp          E_pair         E_mol          TotEng         Press     
         0   1.44          -6.7733681      0             -4.6133681     -5.0196693    
      1000   0.70384063    -5.6762217      0             -4.6204608      0.70433249   
Loop time of 1.20641 on 2048 procs for 1000 steps with 524288000 atoms

Performance: 358085.858 tau/day, 828.902 timesteps/s, 434.584 Gatom-step/s
148.1% CPU use with 2048 MPI tasks x 1 OpenMP threads

MPI task timing breakdown:
Section |  min time  |  avg time  |  max time  |%varavg| %total
---------------------------------------------------------------
Pair    | 0.0095166  | 0.010803   | 0.026746   |   1.8 |  0.90
Neigh   | 0.038582   | 0.068434   | 0.16467    |   9.4 |  5.67
Comm    | 0.66171    | 0.76017    | 0.81509    |   3.4 | 63.01
Output  | 0.00050202 | 0.0082538  | 0.0089747  |   1.2 |  0.68
Modify  | 0.32921    | 0.35716    | 0.37969    |   1.6 | 29.61
Other   |            | 0.001592   |            |       |  0.13

Nlocal:         256000 ave      256560 max      255485 min
Histogram: 8 48 167 376 535 502 272 111 23 6
Nghost:          69855 ave       70211 max       69507 min
Histogram: 7 34 144 331 551 527 290 115 38 11
Neighs:              0 ave           0 max           0 min
Histogram: 2048 0 0 0 0 0 0 0 0 0
FullNghs:  1.91928e+07 ave 1.92681e+07 max 1.91272e+07 min
Histogram: 11 60 194 423 528 466 248 98 16 4

Total # of neighbors = 3.9306862e+10
Ave neighs/atom = 74.971889
Neighbor list builds = 50
Dangerous builds not checked
Total wall time: 0:00:03
