LAMMPS (4 Feb 2025 - Development - patch_4Feb2025-76-gf0bc9ddcc9-modified)
KOKKOS mode with Kokkos version 4.5.1 is enabled (../kokkos.cpp:72)
  will use up to 1 GPU(s) per node
package kokkos
package kokkos neigh full neigh/qeq full newton off comm device pair/only off neigh/transpose on
# 3d Lennard-Jones melt

units		lj
atom_style	atomic

lattice		fcc 0.8442
Lattice spacing in x,y,z = 1.6795962 1.6795962 1.6795962
region		box block 0 $x 0 $y 0 $z
region		box block 0 160 0 $y 0 $z
region		box block 0 160 0 160 0 $z
region		box block 0 160 0 160 0 320
create_box	1 box
Created orthogonal box = (0 0 0) to (268.73539 268.73539 537.47078)
  4 by 4 by 16 MPI processor grid
create_atoms	1 box
Created 32768000 atoms
  using lattice units in orthogonal box = (0 0 0) to (268.73539 268.73539 537.47078)
  create_atoms CPU = 0.036 seconds
mass		1 1.0

velocity	all create 1.44 87287 loop geom

pair_style	lj/cut 2.5
pair_coeff	1 1 1.0 1.0 2.5

neighbor	0.3 bin
neigh_modify	delay 0 every 20 check no

fix		1 all nve
thermo          10000

run		$t
run		1000
Generated 0 of 0 mixed pair_coeff terms from geometric mixing rule
Neighbor list info ...
  update: every = 20 steps, delay = 0 steps, check = no
  max neighbors/atom: 2000, page size: 100000
  master list distance cutoff = 2.8
  ghost atom cutoff = 2.8
  binsize = 2.8, bins = 96 96 192
  1 neighbor lists, perpetual/occasional/extra = 1 0 0
  (1) pair lj/cut/kk, perpetual
      attributes: full, newton off, kokkos_device
      pair build: full/bin/kk/device
      stencil: full/bin/3d
      bin: kk/device
Per MPI rank memory allocation (min/avg/max) = 24.98 | 25.3 | 25.74 Mbytes
   Step          Temp          E_pair         E_mol          TotEng         Press     
         0   1.44          -6.7733681      0             -4.6133681     -5.0196693    
      1000   0.70381028    -5.6761714      0             -4.620456       0.70457078   
Loop time of 0.721855 on 256 procs for 1000 steps with 32768000 atoms

Performance: 598457.824 tau/day, 1385.319 timesteps/s, 45.394 Gatom-step/s
167.2% CPU use with 256 MPI tasks x 1 OpenMP threads

MPI task timing breakdown:
Section |  min time  |  avg time  |  max time  |%varavg| %total
---------------------------------------------------------------
Pair    | 0.0092776  | 0.0099024  | 0.010887   |   0.3 |  1.37
Neigh   | 0.028001   | 0.042003   | 0.092953   |   7.4 |  5.82
Comm    | 0.4081     | 0.46692    | 0.49519    |   2.8 | 64.68
Output  | 0.00036369 | 0.0039968  | 0.0042689  |   1.0 |  0.55
Modify  | 0.18273    | 0.19775    | 0.21135    |   1.4 | 27.39
Other   |            | 0.001285   |            |       |  0.18

Nlocal:         128000 ave      128355 max      127645 min
Histogram: 3 11 19 36 53 64 38 22 8 2
Nghost:        47512.1 ave       47795 max       47282 min
Histogram: 3 13 22 58 71 46 26 14 2 1
Neighs:              0 ave           0 max           0 min
Histogram: 256 0 0 0 0 0 0 0 0 0
FullNghs:   9.5966e+06 ave 9.64383e+06 max 9.54674e+06 min
Histogram: 3 9 14 41 43 70 41 24 9 2

Total # of neighbors = 2.4567301e+09
Ave neighs/atom = 74.973451
Neighbor list builds = 50
Dangerous builds not checked
Total wall time: 0:00:01
