LAMMPS (4 Feb 2025 - Development - patch_4Feb2025-76-gf0bc9ddcc9-modified)
KOKKOS mode with Kokkos version 4.5.1 is enabled (../kokkos.cpp:72)
  will use up to 1 GPU(s) per node
package kokkos
package kokkos neigh full neigh/qeq full newton off comm device pair/only off neigh/transpose on
# 3d Lennard-Jones melt

units		lj
atom_style	atomic

lattice		fcc 0.8442
Lattice spacing in x,y,z = 1.6795962 1.6795962 1.6795962
region		box block 0 $x 0 $y 0 $z
region		box block 0 640 0 $y 0 $z
region		box block 0 640 0 640 0 $z
region		box block 0 640 0 640 0 640
create_box	1 box
Created orthogonal box = (0 0 0) to (1074.9416 1074.9416 1074.9416)
  16 by 16 by 16 MPI processor grid
create_atoms	1 box
Created 1048576000 atoms
  using lattice units in orthogonal box = (0 0 0) to (1074.9416 1074.9416 1074.9416)
  create_atoms CPU = 0.069 seconds
mass		1 1.0

velocity	all create 1.44 87287 loop geom

pair_style	lj/cut 2.5
pair_coeff	1 1 1.0 1.0 2.5

neighbor	0.3 bin
neigh_modify	delay 0 every 20 check no

fix		1 all nve
thermo          10000

run		$t
run		1000
Generated 0 of 0 mixed pair_coeff terms from geometric mixing rule
Neighbor list info ...
  update: every = 20 steps, delay = 0 steps, check = no
  max neighbors/atom: 2000, page size: 100000
  master list distance cutoff = 2.8
  ghost atom cutoff = 2.8
  binsize = 2.8, bins = 384 384 384
  1 neighbor lists, perpetual/occasional/extra = 1 0 0
  (1) pair lj/cut/kk, perpetual
      attributes: full, newton off, kokkos_device
      pair build: full/bin/kk/device
      stencil: full/bin/3d
      bin: kk/device
Per MPI rank memory allocation (min/avg/max) = 44.26 | 45.05 | 45.46 Mbytes
   Step          Temp          E_pair         E_mol          TotEng         Press     
         0   1.44          -6.7733681      0             -4.6133681     -5.0196693    
      1000   0.70386303    -5.6762562      0             -4.6204617      0.70413481   
Loop time of 1.17406 on 4096 procs for 1000 steps with 1048576000 atoms

Performance: 367953.749 tau/day, 851.745 timesteps/s, 893.119 Gatom-step/s
149.2% CPU use with 4096 MPI tasks x 1 OpenMP threads

MPI task timing breakdown:
Section |  min time  |  avg time  |  max time  |%varavg| %total
---------------------------------------------------------------
Pair    | 0.0095069  | 0.010744   | 0.026562   |   1.8 |  0.92
Neigh   | 0.038221   | 0.068666   | 0.17888    |   9.3 |  5.85
Comm    | 0.59841    | 0.728      | 0.78117    |   3.5 | 62.01
Output  | 0.00056337 | 0.0078977  | 0.0082713  |   1.1 |  0.67
Modify  | 0.3296     | 0.35715    | 0.38566    |   1.6 | 30.42
Other   |            | 0.001608   |            |       |  0.14

Nlocal:         256000 ave      256572 max      255463 min
Histogram: 16 79 287 751 1093 1029 564 222 43 12
Nghost:          69854 ave       70229 max       69529 min
Histogram: 12 102 387 847 1102 917 524 171 28 6
Neighs:              0 ave           0 max           0 min
Histogram: 4096 0 0 0 0 0 0 0 0 0
FullNghs:  1.91929e+07 ave 1.92679e+07 max 1.91208e+07 min
Histogram: 18 74 268 723 1096 1030 585 238 49 15

Total # of neighbors = 7.8613941e+10
Ave neighs/atom = 74.972097
Neighbor list builds = 50
Dangerous builds not checked
Total wall time: 0:00:03
