LAMMPS (4 Feb 2025 - Development - patch_4Feb2025-76-gf0bc9ddcc9-modified)
KOKKOS mode with Kokkos version 4.5.1 is enabled (../kokkos.cpp:72)
  will use up to 1 GPU(s) per node
package kokkos
package kokkos neigh full neigh/qeq full newton off comm device pair/only off neigh/transpose on
# 3d Lennard-Jones melt

units		lj
atom_style	atomic

lattice		fcc 0.8442
Lattice spacing in x,y,z = 1.6795962 1.6795962 1.6795962
region		box block 0 $x 0 $y 0 $z
region		box block 0 320 0 $y 0 $z
region		box block 0 320 0 320 0 $z
region		box block 0 320 0 320 0 320
create_box	1 box
Created orthogonal box = (0 0 0) to (537.47078 537.47078 537.47078)
  4 by 8 by 8 MPI processor grid
create_atoms	1 box
Created 131072000 atoms
  using lattice units in orthogonal box = (0 0 0) to (537.47078 537.47078 537.47078)
  create_atoms CPU = 0.333 seconds
mass		1 1.0

velocity	all create 1.44 87287 loop geom

pair_style	lj/cut 2.5
pair_coeff	1 1 1.0 1.0 2.5

neighbor	0.3 bin
neigh_modify	delay 0 every 20 check no

fix		1 all nve
thermo          10000

run		$t
run		1000
Generated 0 of 0 mixed pair_coeff terms from geometric mixing rule
Neighbor list info ...
  update: every = 20 steps, delay = 0 steps, check = no
  max neighbors/atom: 2000, page size: 100000
  master list distance cutoff = 2.8
  ghost atom cutoff = 2.8
  binsize = 2.8, bins = 192 192 192
  1 neighbor lists, perpetual/occasional/extra = 1 0 0
  (1) pair lj/cut/kk, perpetual
      attributes: full, newton off, kokkos_device
      pair build: full/bin/kk/device
      stencil: full/bin/3d
      bin: kk/device
Per MPI rank memory allocation (min/avg/max) = 84.84 | 85.76 | 86.4 Mbytes
   Step          Temp          E_pair         E_mol          TotEng         Press     
         0   1.44          -6.7733681      0             -4.6133681     -5.0196693    
      1000   0.70384882    -5.6762335      0             -4.6204602      0.70430971   
Loop time of 2.99975 on 256 procs for 1000 steps with 131072000 atoms

Performance: 144012.160 tau/day, 333.361 timesteps/s, 43.694 Gatom-step/s
122.1% CPU use with 256 MPI tasks x 1 OpenMP threads

MPI task timing breakdown:
Section |  min time  |  avg time  |  max time  |%varavg| %total
---------------------------------------------------------------
Pair    | 0.010296   | 0.022808   | 0.033399   |   4.5 |  0.76
Neigh   | 0.073275   | 0.15898    | 0.47706    |  24.0 |  5.30
Comm    | 1.7358     | 2.0716     | 2.232      |   6.8 | 69.06
Output  | 0.00048627 | 0.027648   | 0.028166   |   1.3 |  0.92
Modify  | 0.64307    | 0.71546    | 0.92363    |   4.7 | 23.85
Other   |            | 0.003215   |            |       |  0.11

Nlocal:         512000 ave      512474 max      511527 min
Histogram: 10 10 19 48 42 50 34 19 14 10
Nghost:         114520 ave      114807 max      114141 min
Histogram: 1 4 17 17 41 70 57 27 13 9
Neighs:              0 ave           0 max           0 min
Histogram: 256 0 0 0 0 0 0 0 0 0
FullNghs:  3.83858e+07 ave 3.84564e+07 max 3.83276e+07 min
Histogram: 15 13 33 40 55 41 25 20 9 5

Total # of neighbors = 9.826756e+09
Ave neighs/atom = 74.972198
Neighbor list builds = 50
Dangerous builds not checked
Total wall time: 0:00:05
