LAMMPS (4 Feb 2025 - Development - patch_4Feb2025-76-gf0bc9ddcc9-modified)
KOKKOS mode with Kokkos version 4.5.1 is enabled (../kokkos.cpp:72)
  will use up to 1 GPU(s) per node
package kokkos
package kokkos neigh full neigh/qeq full newton off comm device pair/only off neigh/transpose on
# 3d Lennard-Jones melt

units		lj
atom_style	atomic

lattice		fcc 0.8442
Lattice spacing in x,y,z = 1.6795962 1.6795962 1.6795962
region		box block 0 $x 0 $y 0 $z
region		box block 0 80 0 $y 0 $z
region		box block 0 80 0 160 0 $z
region		box block 0 80 0 160 0 160
create_box	1 box
Created orthogonal box = (0 0 0) to (134.3677 268.73539 268.73539)
  1 by 4 by 4 MPI processor grid
create_atoms	1 box
Created 8192000 atoms
  using lattice units in orthogonal box = (0 0 0) to (134.3677 268.73539 268.73539)
  create_atoms CPU = 0.128 seconds
mass		1 1.0

velocity	all create 1.44 87287 loop geom

pair_style	lj/cut 2.5
pair_coeff	1 1 1.0 1.0 2.5

neighbor	0.3 bin
neigh_modify	delay 0 every 20 check no

fix		1 all nve
thermo          10000

run		$t
run		1000
Generated 0 of 0 mixed pair_coeff terms from geometric mixing rule
Neighbor list info ...
  update: every = 20 steps, delay = 0 steps, check = no
  max neighbors/atom: 2000, page size: 100000
  master list distance cutoff = 2.8
  ghost atom cutoff = 2.8
  binsize = 2.8, bins = 48 96 96
  1 neighbor lists, perpetual/occasional/extra = 1 0 0
  (1) pair lj/cut/kk, perpetual
      attributes: full, newton off, kokkos_device
      pair build: full/bin/kk/device
      stencil: full/bin/3d
      bin: kk/device
Per MPI rank memory allocation (min/avg/max) = 85.29 | 85.88 | 86.27 Mbytes
   Step          Temp          E_pair         E_mol          TotEng         Press     
         0   1.44          -6.7733681      0             -4.6133683     -5.0196694    
      1000   0.70390765    -5.676322       0             -4.6204607      0.70371462   
Loop time of 2.20834 on 16 procs for 1000 steps with 8192000 atoms

Performance: 195622.462 tau/day, 452.830 timesteps/s, 3.710 Gatom-step/s
124.2% CPU use with 16 MPI tasks x 1 OpenMP threads

MPI task timing breakdown:
Section |  min time  |  avg time  |  max time  |%varavg| %total
---------------------------------------------------------------
Pair    | 0.010974   | 0.023418   | 0.033009   |   4.4 |  1.06
Neigh   | 0.073744   | 0.17659    | 0.42571    |  25.2 |  8.00
Comm    | 1.0138     | 1.3014     | 1.4433     |   9.4 | 58.93
Output  | 0.00039737 | 0.025903   | 0.027798   |   4.1 |  1.17
Modify  | 0.60232    | 0.67778    | 0.7393     |   4.3 | 30.69
Other   |            | 0.003241   |            |       |  0.15

Nlocal:         512000 ave      512263 max      511593 min
Histogram: 2 2 0 1 0 1 2 2 2 4
Nghost:         114507 ave      114734 max      114281 min
Histogram: 1 1 4 2 1 1 1 2 0 3
Neighs:              0 ave           0 max           0 min
Histogram: 16 0 0 0 0 0 0 0 0 0
FullNghs:  3.83863e+07 ave 3.84252e+07 max 3.83372e+07 min
Histogram: 2 2 0 1 0 3 1 3 1 3

Total # of neighbors = 6.1418067e+08
Ave neighs/atom = 74.973226
Neighbor list builds = 50
Dangerous builds not checked
Total wall time: 0:00:03
