LAMMPS (4 Feb 2025 - Development - patch_4Feb2025-76-gf0bc9ddcc9-modified)
KOKKOS mode with Kokkos version 4.5.1 is enabled (../kokkos.cpp:72)
  will use up to 1 GPU(s) per node
package kokkos
package kokkos neigh full neigh/qeq full newton off comm device pair/only off neigh/transpose on
# 3d Lennard-Jones melt

units		lj
atom_style	atomic

lattice		fcc 0.8442
Lattice spacing in x,y,z = 1.6795962 1.6795962 1.6795962
region		box block 0 $x 0 $y 0 $z
region		box block 0 40 0 $y 0 $z
region		box block 0 40 0 80 0 $z
region		box block 0 40 0 80 0 80
create_box	1 box
Created orthogonal box = (0 0 0) to (67.183848 134.3677 134.3677)
  1 by 2 by 4 MPI processor grid
create_atoms	1 box
Created 1024000 atoms
  using lattice units in orthogonal box = (0 0 0) to (67.183848 134.3677 134.3677)
  create_atoms CPU = 0.031 seconds
mass		1 1.0

velocity	all create 1.44 87287 loop geom

pair_style	lj/cut 2.5
pair_coeff	1 1 1.0 1.0 2.5

neighbor	0.3 bin
neigh_modify	delay 0 every 20 check no

fix		1 all nve
thermo          10000

run		$t
run		1000
Generated 0 of 0 mixed pair_coeff terms from geometric mixing rule
Neighbor list info ...
  update: every = 20 steps, delay = 0 steps, check = no
  max neighbors/atom: 2000, page size: 100000
  master list distance cutoff = 2.8
  ghost atom cutoff = 2.8
  binsize = 2.8, bins = 24 48 48
  1 neighbor lists, perpetual/occasional/extra = 1 0 0
  (1) pair lj/cut/kk, perpetual
      attributes: full, newton off, kokkos_device
      pair build: full/bin/kk/device
      stencil: full/bin/3d
      bin: kk/device
Per MPI rank memory allocation (min/avg/max) = 25.23 | 25.46 | 25.62 Mbytes
   Step          Temp          E_pair         E_mol          TotEng         Press     
         0   1.44          -6.7733681      0             -4.6133702     -5.0196705    
      1000   0.70419562    -5.6767684      0             -4.620476       0.70292769   
Loop time of 0.551305 on 8 procs for 1000 steps with 1024000 atoms

Performance: 783595.520 tau/day, 1813.879 timesteps/s, 1.857 Gatom-step/s
177.3% CPU use with 8 MPI tasks x 1 OpenMP threads

MPI task timing breakdown:
Section |  min time  |  avg time  |  max time  |%varavg| %total
---------------------------------------------------------------
Pair    | 0.0096472  | 0.0099934  | 0.010758   |   0.3 |  1.81
Neigh   | 0.025981   | 0.040114   | 0.050656   |   5.0 |  7.28
Comm    | 0.28699    | 0.30414    | 0.32502    |   2.3 | 55.17
Output  | 0.00022257 | 0.00029776 | 0.00037703 |   0.0 |  0.05
Modify  | 0.18692    | 0.19548    | 0.20534    |   1.4 | 35.46
Other   |            | 0.001274   |            |       |  0.23

Nlocal:         128000 ave      128120 max      127833 min
Histogram: 1 0 1 0 0 1 1 2 1 1
Nghost:        47519.9 ave       47627 max       47363 min
Histogram: 1 0 0 1 0 2 0 3 0 1
Neighs:              0 ave           0 max           0 min
Histogram: 8 0 0 0 0 0 0 0 0 0
FullNghs:  9.59642e+06 ave   9.609e+06 max 9.57424e+06 min
Histogram: 1 0 0 1 0 1 1 1 1 2

Total # of neighbors = 76771356
Ave neighs/atom = 74.972027
Neighbor list builds = 50
Dangerous builds not checked
Total wall time: 0:00:01
