LAMMPS (4 Feb 2025 - Development - patch_4Feb2025-76-gf0bc9ddcc9-modified)
KOKKOS mode with Kokkos version 4.5.1 is enabled (../kokkos.cpp:72)
  will use up to 1 GPU(s) per node
package kokkos
package kokkos neigh full neigh/qeq full newton off comm device pair/only off neigh/transpose on
# 3d Lennard-Jones melt

units		lj
atom_style	atomic

lattice		fcc 0.8442
Lattice spacing in x,y,z = 1.6795962 1.6795962 1.6795962
region		box block 0 $x 0 $y 0 $z
region		box block 0 160 0 $y 0 $z
region		box block 0 160 0 160 0 $z
region		box block 0 160 0 160 0 320
create_box	1 box
Created orthogonal box = (0 0 0) to (268.73539 268.73539 537.47078)
  1 by 2 by 4 MPI processor grid
create_atoms	1 box
Created 32768000 atoms
  using lattice units in orthogonal box = (0 0 0) to (268.73539 268.73539 537.47078)
  create_atoms CPU = 0.819 seconds
mass		1 1.0

velocity	all create 1.44 87287 loop geom

pair_style	lj/cut 2.5
pair_coeff	1 1 1.0 1.0 2.5

neighbor	0.3 bin
neigh_modify	delay 0 every 20 check no

fix		1 all nve
thermo          10000

run		$t
run		1000
Generated 0 of 0 mixed pair_coeff terms from geometric mixing rule
Neighbor list info ...
  update: every = 20 steps, delay = 0 steps, check = no
  max neighbors/atom: 2000, page size: 100000
  master list distance cutoff = 2.8
  ghost atom cutoff = 2.8
  binsize = 2.8, bins = 96 96 192
  1 neighbor lists, perpetual/occasional/extra = 1 0 0
  (1) pair lj/cut/kk, perpetual
      attributes: full, newton off, kokkos_device
      pair build: full/bin/kk/device
      stencil: full/bin/3d
      bin: kk/device
Per MPI rank memory allocation (min/avg/max) = 610.8 | 612.3 | 613.1 Mbytes
   Step          Temp          E_pair         E_mol          TotEng         Press     
         0   1.44          -6.7733681      0             -4.6133681     -5.0196693    
      1000   0.70381028    -5.6761714      0             -4.620456       0.70457079   
Loop time of 11.8088 on 8 procs for 1000 steps with 32768000 atoms

Performance: 36582.760 tau/day, 84.682 timesteps/s, 2.775 Gatom-step/s
102.9% CPU use with 8 MPI tasks x 1 OpenMP threads

MPI task timing breakdown:
Section |  min time  |  avg time  |  max time  |%varavg| %total
---------------------------------------------------------------
Pair    | 0.017089   | 0.026607   | 0.029395   |   2.3 |  0.23
Neigh   | 0.53474    | 1.1523     | 2.3947     |  59.7 |  9.76
Comm    | 2.7789     | 4.0561     | 4.8269     |  34.9 | 34.35
Output  | 0.00039228 | 0.0061858  | 0.0075931  |   2.8 |  0.05
Modify  | 6.3873     | 6.5516     | 6.7288     |   4.3 | 55.48
Other   |            | 0.01601    |            |       |  0.14

Nlocal:      4.096e+06 ave 4.09629e+06 max 4.09544e+06 min
Histogram: 1 0 0 0 0 2 1 1 1 2
Nghost:         443193 ave      443476 max      442719 min
Histogram: 1 0 0 0 0 3 1 0 2 1
Neighs:              0 ave           0 max           0 min
Histogram: 8 0 0 0 0 0 0 0 0 0
FullNghs:  3.07091e+08 ave 3.07145e+08 max 3.07007e+08 min
Histogram: 1 0 0 0 1 1 3 0 1 1

Total # of neighbors = 2.45673e+09
Ave neighs/atom = 74.973451
Neighbor list builds = 50
Dangerous builds not checked
Total wall time: 0:00:14
