LAMMPS (4 Feb 2025 - Development - patch_4Feb2025-76-gf0bc9ddcc9-modified)
KOKKOS mode with Kokkos version 4.5.1 is enabled (../kokkos.cpp:72)
  will use up to 1 GPU(s) per node
package kokkos
package kokkos neigh full neigh/qeq full newton off comm device pair/only off neigh/transpose on
# 3d Lennard-Jones melt

units		lj
atom_style	atomic

lattice		fcc 0.8442
Lattice spacing in x,y,z = 1.6795962 1.6795962 1.6795962
region		box block 0 $x 0 $y 0 $z
region		box block 0 640 0 $y 0 $z
region		box block 0 640 0 640 0 $z
region		box block 0 640 0 640 0 640
create_box	1 box
Created orthogonal box = (0 0 0) to (1074.9416 1074.9416 1074.9416)
  16 by 16 by 32 MPI processor grid
create_atoms	1 box
Created 1048576000 atoms
  using lattice units in orthogonal box = (0 0 0) to (1074.9416 1074.9416 1074.9416)
  create_atoms CPU = 0.039 seconds
mass		1 1.0

velocity	all create 1.44 87287 loop geom

pair_style	lj/cut 2.5
pair_coeff	1 1 1.0 1.0 2.5

neighbor	0.3 bin
neigh_modify	delay 0 every 20 check no

fix		1 all nve
thermo          10000

run		$t
run		1000
Generated 0 of 0 mixed pair_coeff terms from geometric mixing rule
Neighbor list info ...
  update: every = 20 steps, delay = 0 steps, check = no
  max neighbors/atom: 2000, page size: 100000
  master list distance cutoff = 2.8
  ghost atom cutoff = 2.8
  binsize = 2.8, bins = 384 384 384
  1 neighbor lists, perpetual/occasional/extra = 1 0 0
  (1) pair lj/cut/kk, perpetual
      attributes: full, newton off, kokkos_device
      pair build: full/bin/kk/device
      stencil: full/bin/3d
      bin: kk/device
Per MPI rank memory allocation (min/avg/max) = 25.01 | 25.29 | 25.77 Mbytes
   Step          Temp          E_pair         E_mol          TotEng         Press     
         0   1.44          -6.7733681      0             -4.6133681     -5.0196693    
      1000   0.70386303    -5.6762563      0             -4.6204617      0.70413483   
Loop time of 0.848122 on 8192 procs for 1000 steps with 1048576000 atoms

Performance: 509360.672 tau/day, 1179.076 timesteps/s, 1236.350 Gatom-step/s
160.0% CPU use with 8192 MPI tasks x 1 OpenMP threads

MPI task timing breakdown:
Section |  min time  |  avg time  |  max time  |%varavg| %total
---------------------------------------------------------------
Pair    | 0.0091053  | 0.009884   | 0.015154   |   0.3 |  1.17
Neigh   | 0.026618   | 0.042169   | 0.1078     |   6.8 |  4.97
Comm    | 0.52179    | 0.59289    | 0.62222    |   2.4 | 69.91
Output  | 0.00047326 | 0.0042822  | 0.0045273  |   0.8 |  0.50
Modify  | 0.18178    | 0.19758    | 0.21232    |   1.5 | 23.30
Other   |            | 0.001312   |            |       |  0.15

Nlocal:         128000 ave      128459 max      127581 min
Histogram: 29 142 634 1597 2231 2032 1086 364 65 12
Nghost:        47516.7 ave       47856 max       47247 min
Histogram: 44 233 925 1863 2391 1723 776 194 36 7
Neighs:              0 ave           0 max           0 min
Histogram: 8192 0 0 0 0 0 0 0 0 0
FullNghs:  9.59643e+06 ave  9.6563e+06 max 9.54203e+06 min
Histogram: 34 154 643 1598 2227 2031 1038 374 83 10

Total # of neighbors = 7.8613941e+10
Ave neighs/atom = 74.972097
Neighbor list builds = 50
Dangerous builds not checked
Total wall time: 0:00:03
