LAMMPS (4 Feb 2025 - Development - patch_4Feb2025-76-gf0bc9ddcc9-modified)
KOKKOS mode with Kokkos version 4.5.1 is enabled (../kokkos.cpp:72)
  will use up to 1 GPU(s) per node
package kokkos
package kokkos neigh full neigh/qeq full newton off comm device pair/only off neigh/transpose on
# 3d Lennard-Jones melt

units		lj
atom_style	atomic

lattice		fcc 0.8442
Lattice spacing in x,y,z = 1.6795962 1.6795962 1.6795962
region		box block 0 $x 0 $y 0 $z
region		box block 0 80 0 $y 0 $z
region		box block 0 80 0 80 0 $z
region		box block 0 80 0 80 0 80
create_box	1 box
Created orthogonal box = (0 0 0) to (134.3677 134.3677 134.3677)
  2 by 2 by 4 MPI processor grid
create_atoms	1 box
Created 2048000 atoms
  using lattice units in orthogonal box = (0 0 0) to (134.3677 134.3677 134.3677)
  create_atoms CPU = 0.032 seconds
mass		1 1.0

velocity	all create 1.44 87287 loop geom

pair_style	lj/cut 2.5
pair_coeff	1 1 1.0 1.0 2.5

neighbor	0.3 bin
neigh_modify	delay 0 every 20 check no

fix		1 all nve
thermo          10000

run		$t
run		1000
Generated 0 of 0 mixed pair_coeff terms from geometric mixing rule
Neighbor list info ...
  update: every = 20 steps, delay = 0 steps, check = no
  max neighbors/atom: 2000, page size: 100000
  master list distance cutoff = 2.8
  ghost atom cutoff = 2.8
  binsize = 2.8, bins = 48 48 48
  1 neighbor lists, perpetual/occasional/extra = 1 0 0
  (1) pair lj/cut/kk, perpetual
      attributes: full, newton off, kokkos_device
      pair build: full/bin/kk/device
      stencil: full/bin/3d
      bin: kk/device
Per MPI rank memory allocation (min/avg/max) = 25.23 | 25.46 | 25.62 Mbytes
   Step          Temp          E_pair         E_mol          TotEng         Press     
         0   1.44          -6.7733681      0             -4.6133691     -5.0196699    
      1000   0.70371601    -5.6760417      0             -4.6204682      0.70352069   
Loop time of 0.636022 on 16 procs for 1000 steps with 2048000 atoms

Performance: 679221.755 tau/day, 1572.273 timesteps/s, 3.220 Gatom-step/s
171.5% CPU use with 16 MPI tasks x 1 OpenMP threads

MPI task timing breakdown:
Section |  min time  |  avg time  |  max time  |%varavg| %total
---------------------------------------------------------------
Pair    | 0.0092162  | 0.0098288  | 0.010173   |   0.2 |  1.55
Neigh   | 0.027521   | 0.042188   | 0.077739   |   5.8 |  6.63
Comm    | 0.33402    | 0.38233    | 0.40448    |   2.8 | 60.11
Output  | 0.00021205 | 0.003241   | 0.0035199  |   1.4 |  0.51
Modify  | 0.1891     | 0.19717    | 0.20991    |   1.7 | 31.00
Other   |            | 0.001266   |            |       |  0.20

Nlocal:         128000 ave      128194 max      127774 min
Histogram: 3 1 1 0 0 2 1 6 1 1
Nghost:        47532.6 ave       47725 max       47381 min
Histogram: 1 2 2 3 1 2 3 0 1 1
Neighs:              0 ave           0 max           0 min
Histogram: 16 0 0 0 0 0 0 0 0 0
FullNghs:  9.59686e+06 ave 9.61906e+06 max 9.56559e+06 min
Histogram: 3 0 1 1 0 0 2 5 3 1

Total # of neighbors = 1.5354977e+08
Ave neighs/atom = 74.975476
Neighbor list builds = 50
Dangerous builds not checked
Total wall time: 0:00:01
