LAMMPS (4 Feb 2025 - Development - patch_4Feb2025-76-gf0bc9ddcc9-modified)
KOKKOS mode with Kokkos version 4.5.1 is enabled (../kokkos.cpp:72)
  will use up to 1 GPU(s) per node
package kokkos
package kokkos neigh full neigh/qeq full newton off comm device pair/only off neigh/transpose on
# 3d Lennard-Jones melt

units		lj
atom_style	atomic

lattice		fcc 0.8442
Lattice spacing in x,y,z = 1.6795962 1.6795962 1.6795962
region		box block 0 $x 0 $y 0 $z
region		box block 0 640 0 $y 0 $z
region		box block 0 640 0 640 0 $z
region		box block 0 640 0 640 0 640
create_box	1 box
Created orthogonal box = (0 0 0) to (1074.9416 1074.9416 1074.9416)
  8 by 8 by 8 MPI processor grid
create_atoms	1 box
Created 1048576000 atoms
  using lattice units in orthogonal box = (0 0 0) to (1074.9416 1074.9416 1074.9416)
  create_atoms CPU = 0.435 seconds
mass		1 1.0

velocity	all create 1.44 87287 loop geom

pair_style	lj/cut 2.5
pair_coeff	1 1 1.0 1.0 2.5

neighbor	0.3 bin
neigh_modify	delay 0 every 20 check no

fix		1 all nve
thermo          10000

run		$t
run		1000
Generated 0 of 0 mixed pair_coeff terms from geometric mixing rule
Neighbor list info ...
  update: every = 20 steps, delay = 0 steps, check = no
  max neighbors/atom: 2000, page size: 100000
  master list distance cutoff = 2.8
  ghost atom cutoff = 2.8
  binsize = 2.8, bins = 384 384 384
  1 neighbor lists, perpetual/occasional/extra = 1 0 0
  (1) pair lj/cut/kk, perpetual
      attributes: full, newton off, kokkos_device
      pair build: full/bin/kk/device
      stencil: full/bin/3d
      bin: kk/device
Per MPI rank memory allocation (min/avg/max) = 308.1 | 310.4 | 312.5 Mbytes
   Step          Temp          E_pair         E_mol          TotEng         Press     
         0   1.44          -6.7733681      0             -4.6133681     -5.0196693    
      1000   0.70386297    -5.6762562      0             -4.6204617      0.70413524   
Loop time of 7.49774 on 512 procs for 1000 steps with 1048576000 atoms

Performance: 57617.354 tau/day, 133.374 timesteps/s, 139.852 Gatom-step/s
111.0% CPU use with 512 MPI tasks x 1 OpenMP threads

MPI task timing breakdown:
Section |  min time  |  avg time  |  max time  |%varavg| %total
---------------------------------------------------------------
Pair    | 0.012648   | 0.014079   | 0.029743   |   1.4 |  0.19
Neigh   | 0.26289    | 0.53006    | 1.6366     |  38.0 |  7.07
Comm    | 3.1705     | 4.186      | 4.6872     |  13.1 | 55.83
Output  | 0.0005199  | 0.071893   | 0.073956   |   3.8 |  0.96
Modify  | 2.2693     | 2.6888     | 3.0524     |   9.3 | 35.86
Other   |            | 0.006944   |            |       |  0.09

Nlocal:      2.048e+06 ave 2.04921e+06 max 2.04679e+06 min
Histogram: 1 9 28 87 130 129 88 24 14 2
Nghost:         268203 ave      268775 max      267596 min
Histogram: 7 12 42 74 101 113 85 51 22 5
Neighs:              0 ave           0 max           0 min
Histogram: 512 0 0 0 0 0 0 0 0 0
FullNghs:  1.53543e+08 ave 1.53712e+08 max 1.53383e+08 min
Histogram: 1 9 42 90 138 124 73 27 7 1

Total # of neighbors = 7.8613942e+10
Ave neighs/atom = 74.972097
Neighbor list builds = 50
Dangerous builds not checked
Total wall time: 0:00:09
