LAMMPS (4 Feb 2025 - Development - patch_4Feb2025-76-gf0bc9ddcc9-modified)
KOKKOS mode with Kokkos version 4.5.1 is enabled (../kokkos.cpp:72)
  will use up to 1 GPU(s) per node
package kokkos
package kokkos neigh full neigh/qeq full newton off comm device pair/only off neigh/transpose on
# 3d Lennard-Jones melt

units		lj
atom_style	atomic

lattice		fcc 0.8442
Lattice spacing in x,y,z = 1.6795962 1.6795962 1.6795962
region		box block 0 $x 0 $y 0 $z
region		box block 0 80 0 $y 0 $z
region		box block 0 80 0 80 0 $z
region		box block 0 80 0 80 0 160
create_box	1 box
Created orthogonal box = (0 0 0) to (134.3677 134.3677 268.73539)
  2 by 2 by 4 MPI processor grid
create_atoms	1 box
Created 4096000 atoms
  using lattice units in orthogonal box = (0 0 0) to (134.3677 134.3677 268.73539)
  create_atoms CPU = 0.056 seconds
mass		1 1.0

velocity	all create 1.44 87287 loop geom

pair_style	lj/cut 2.5
pair_coeff	1 1 1.0 1.0 2.5

neighbor	0.3 bin
neigh_modify	delay 0 every 20 check no

fix		1 all nve
thermo          10000

run		$t
run		1000
Generated 0 of 0 mixed pair_coeff terms from geometric mixing rule
Neighbor list info ...
  update: every = 20 steps, delay = 0 steps, check = no
  max neighbors/atom: 2000, page size: 100000
  master list distance cutoff = 2.8
  ghost atom cutoff = 2.8
  binsize = 2.8, bins = 48 48 96
  1 neighbor lists, perpetual/occasional/extra = 1 0 0
  (1) pair lj/cut/kk, perpetual
      attributes: full, newton off, kokkos_device
      pair build: full/bin/kk/device
      stencil: full/bin/3d
      bin: kk/device
Per MPI rank memory allocation (min/avg/max) = 44.56 | 44.98 | 45.14 Mbytes
   Step          Temp          E_pair         E_mol          TotEng         Press     
         0   1.44          -6.7733681      0             -4.6133686     -5.0196696    
      1000   0.70377621    -5.6761254      0             -4.6204614      0.70407897   
Loop time of 0.935026 on 16 procs for 1000 steps with 4096000 atoms

Performance: 462019.377 tau/day, 1069.489 timesteps/s, 4.381 Gatom-step/s
153.9% CPU use with 16 MPI tasks x 1 OpenMP threads

MPI task timing breakdown:
Section |  min time  |  avg time  |  max time  |%varavg| %total
---------------------------------------------------------------
Pair    | 0.0097299  | 0.010655   | 0.017259   |   1.7 |  1.14
Neigh   | 0.038551   | 0.065148   | 0.1139     |   9.1 |  6.97
Comm    | 0.42811    | 0.49195    | 0.53343    |   4.5 | 52.61
Output  | 0.00029738 | 0.0059265  | 0.0063974  |   1.9 |  0.63
Modify  | 0.34503    | 0.35975    | 0.374      |   1.5 | 38.48
Other   |            | 0.001591   |            |       |  0.17

Nlocal:         256000 ave      256199 max      255753 min
Histogram: 2 0 1 2 3 1 0 3 2 2
Nghost:        69827.6 ave       70099 max       69649 min
Histogram: 2 1 4 2 2 2 1 0 1 1
Neighs:              0 ave           0 max           0 min
Histogram: 16 0 0 0 0 0 0 0 0 0
FullNghs:  1.91927e+07 ave 1.92192e+07 max 1.91569e+07 min
Histogram: 1 0 3 1 2 2 0 3 2 2

Total # of neighbors = 3.0708273e+08
Ave neighs/atom = 74.97137
Neighbor list builds = 50
Dangerous builds not checked
Total wall time: 0:00:01
