LAMMPS (4 Feb 2025 - Development - patch_4Feb2025-76-gf0bc9ddcc9-modified)
KOKKOS mode with Kokkos version 4.5.1 is enabled (../kokkos.cpp:72)
  will use up to 1 GPU(s) per node
package kokkos
package kokkos neigh full neigh/qeq full newton off comm device pair/only off neigh/transpose on
# 3d Lennard-Jones melt

units		lj
atom_style	atomic

lattice		fcc 0.8442
Lattice spacing in x,y,z = 1.6795962 1.6795962 1.6795962
region		box block 0 $x 0 $y 0 $z
region		box block 0 160 0 $y 0 $z
region		box block 0 160 0 160 0 $z
region		box block 0 160 0 160 0 160
create_box	1 box
Created orthogonal box = (0 0 0) to (268.73539 268.73539 268.73539)
  4 by 4 by 8 MPI processor grid
create_atoms	1 box
Created 16384000 atoms
  using lattice units in orthogonal box = (0 0 0) to (268.73539 268.73539 268.73539)
  create_atoms CPU = 0.037 seconds
mass		1 1.0

velocity	all create 1.44 87287 loop geom

pair_style	lj/cut 2.5
pair_coeff	1 1 1.0 1.0 2.5

neighbor	0.3 bin
neigh_modify	delay 0 every 20 check no

fix		1 all nve
thermo          10000

run		$t
run		1000
Generated 0 of 0 mixed pair_coeff terms from geometric mixing rule
Neighbor list info ...
  update: every = 20 steps, delay = 0 steps, check = no
  max neighbors/atom: 2000, page size: 100000
  master list distance cutoff = 2.8
  ghost atom cutoff = 2.8
  binsize = 2.8, bins = 96 96 96
  1 neighbor lists, perpetual/occasional/extra = 1 0 0
  (1) pair lj/cut/kk, perpetual
      attributes: full, newton off, kokkos_device
      pair build: full/bin/kk/device
      stencil: full/bin/3d
      bin: kk/device
Per MPI rank memory allocation (min/avg/max) = 24.97 | 25.39 | 25.74 Mbytes
   Step          Temp          E_pair         E_mol          TotEng         Press     
         0   1.44          -6.7733681      0             -4.6133682     -5.0196693    
      1000   0.7039527     -5.676399       0             -4.62047        0.70361391   
Loop time of 0.691986 on 128 procs for 1000 steps with 16384000 atoms

Performance: 624289.777 tau/day, 1445.115 timesteps/s, 23.677 Gatom-step/s
167.6% CPU use with 128 MPI tasks x 1 OpenMP threads

MPI task timing breakdown:
Section |  min time  |  avg time  |  max time  |%varavg| %total
---------------------------------------------------------------
Pair    | 0.0092056  | 0.0098262  | 0.010853   |   0.3 |  1.42
Neigh   | 0.027927   | 0.041168   | 0.095521   |   7.4 |  5.95
Comm    | 0.37576    | 0.43819    | 0.46457    |   2.9 | 63.32
Output  | 0.0003105  | 0.0036386  | 0.0038564  |   0.8 |  0.53
Modify  | 0.183      | 0.1979     | 0.21147    |   1.5 | 28.60
Other   |            | 0.001269   |            |       |  0.18

Nlocal:         128000 ave      128376 max      127733 min
Histogram: 9 13 16 17 29 22 10 6 4 2
Nghost:          47528 ave       47776 max       47272 min
Histogram: 2 3 10 19 27 26 28 9 3 1
Neighs:              0 ave           0 max           0 min
Histogram: 128 0 0 0 0 0 0 0 0 0
FullNghs:  9.59622e+06 ave  9.6462e+06 max 9.55846e+06 min
Histogram: 6 13 16 15 34 18 13 9 3 1

Total # of neighbors = 1.2283158e+09
Ave neighs/atom = 74.970444
Neighbor list builds = 50
Dangerous builds not checked
Total wall time: 0:00:01
