LAMMPS (4 Feb 2025 - Development - patch_4Feb2025-76-gf0bc9ddcc9-modified)
KOKKOS mode with Kokkos version 4.5.1 is enabled (../kokkos.cpp:72)
  will use up to 1 GPU(s) per node
package kokkos
package kokkos neigh full neigh/qeq full newton off comm device pair/only off neigh/transpose on
# 3d Lennard-Jones melt

units		lj
atom_style	atomic

lattice		fcc 0.8442
Lattice spacing in x,y,z = 1.6795962 1.6795962 1.6795962
region		box block 0 $x 0 $y 0 $z
region		box block 0 320 0 $y 0 $z
region		box block 0 320 0 320 0 $z
region		box block 0 320 0 320 0 320
create_box	1 box
Created orthogonal box = (0 0 0) to (537.47078 537.47078 537.47078)
  8 by 8 by 16 MPI processor grid
create_atoms	1 box
Created 131072000 atoms
  using lattice units in orthogonal box = (0 0 0) to (537.47078 537.47078 537.47078)
  create_atoms CPU = 0.036 seconds
mass		1 1.0

velocity	all create 1.44 87287 loop geom

pair_style	lj/cut 2.5
pair_coeff	1 1 1.0 1.0 2.5

neighbor	0.3 bin
neigh_modify	delay 0 every 20 check no

fix		1 all nve
thermo          10000

run		$t
run		1000
Generated 0 of 0 mixed pair_coeff terms from geometric mixing rule
Neighbor list info ...
  update: every = 20 steps, delay = 0 steps, check = no
  max neighbors/atom: 2000, page size: 100000
  master list distance cutoff = 2.8
  ghost atom cutoff = 2.8
  binsize = 2.8, bins = 192 192 192
  1 neighbor lists, perpetual/occasional/extra = 1 0 0
  (1) pair lj/cut/kk, perpetual
      attributes: full, newton off, kokkos_device
      pair build: full/bin/kk/device
      stencil: full/bin/3d
      bin: kk/device
Per MPI rank memory allocation (min/avg/max) = 24.98 | 25.31 | 25.74 Mbytes
   Step          Temp          E_pair         E_mol          TotEng         Press     
         0   1.44          -6.7733681      0             -4.6133681     -5.0196693    
      1000   0.70384893    -5.6762336      0             -4.6204602      0.70430891   
Loop time of 0.729894 on 1024 procs for 1000 steps with 131072000 atoms

Performance: 591866.893 tau/day, 1370.062 timesteps/s, 179.577 Gatom-step/s
167.6% CPU use with 1024 MPI tasks x 1 OpenMP threads

MPI task timing breakdown:
Section |  min time  |  avg time  |  max time  |%varavg| %total
---------------------------------------------------------------
Pair    | 0.0090985  | 0.0098624  | 0.01108    |   0.3 |  1.35
Neigh   | 0.025749   | 0.041724   | 0.095874   |   6.9 |  5.72
Comm    | 0.41921    | 0.47498    | 0.50205    |   2.7 | 65.08
Output  | 0.00039831 | 0.0043209  | 0.0045603  |   0.8 |  0.59
Modify  | 0.1835     | 0.19771    | 0.21192    |   1.5 | 27.09
Other   |            | 0.001292   |            |       |  0.18

Nlocal:         128000 ave      128394 max      127590 min
Histogram: 2 18 63 174 218 258 180 84 23 4
Nghost:          47514 ave       47753 max       47277 min
Histogram: 12 33 74 183 228 204 163 83 35 9
Neighs:              0 ave           0 max           0 min
Histogram: 1024 0 0 0 0 0 0 0 0 0
FullNghs:  9.59644e+06 ave 9.64597e+06 max 9.54215e+06 min
Histogram: 2 18 57 167 209 242 188 110 21 10

Total # of neighbors = 9.8267561e+09
Ave neighs/atom = 74.972199
Neighbor list builds = 50
Dangerous builds not checked
Total wall time: 0:00:01
