LAMMPS (4 Feb 2025 - Development - patch_4Feb2025-76-gf0bc9ddcc9-modified)
KOKKOS mode with Kokkos version 4.5.1 is enabled (../kokkos.cpp:72)
  will use up to 1 GPU(s) per node
package kokkos
package kokkos neigh full neigh/qeq full newton off comm device pair/only off neigh/transpose on
# 3d Lennard-Jones melt

units		lj
atom_style	atomic

lattice		fcc 0.8442
Lattice spacing in x,y,z = 1.6795962 1.6795962 1.6795962
region		box block 0 $x 0 $y 0 $z
region		box block 0 640 0 $y 0 $z
region		box block 0 640 0 640 0 $z
region		box block 0 640 0 640 0 640
create_box	1 box
Created orthogonal box = (0 0 0) to (1074.9416 1074.9416 1074.9416)
  8 by 8 by 16 MPI processor grid
create_atoms	1 box
Created 1048576000 atoms
  using lattice units in orthogonal box = (0 0 0) to (1074.9416 1074.9416 1074.9416)
  create_atoms CPU = 0.227 seconds
mass		1 1.0

velocity	all create 1.44 87287 loop geom

pair_style	lj/cut 2.5
pair_coeff	1 1 1.0 1.0 2.5

neighbor	0.3 bin
neigh_modify	delay 0 every 20 check no

fix		1 all nve
thermo          10000

run		$t
run		1000
Generated 0 of 0 mixed pair_coeff terms from geometric mixing rule
Neighbor list info ...
  update: every = 20 steps, delay = 0 steps, check = no
  max neighbors/atom: 2000, page size: 100000
  master list distance cutoff = 2.8
  ghost atom cutoff = 2.8
  binsize = 2.8, bins = 384 384 384
  1 neighbor lists, perpetual/occasional/extra = 1 0 0
  (1) pair lj/cut/kk, perpetual
      attributes: full, newton off, kokkos_device
      pair build: full/bin/kk/device
      stencil: full/bin/3d
      bin: kk/device
Per MPI rank memory allocation (min/avg/max) = 164 | 165.8 | 167.3 Mbytes
   Step          Temp          E_pair         E_mol          TotEng         Press     
         0   1.44          -6.7733681      0             -4.6133681     -5.0196693    
      1000   0.70386296    -5.6762561      0             -4.6204617      0.70413526   
Loop time of 3.85659 on 1024 procs for 1000 steps with 1048576000 atoms

Performance: 112016.081 tau/day, 259.296 timesteps/s, 271.892 Gatom-step/s
119.5% CPU use with 1024 MPI tasks x 1 OpenMP threads

MPI task timing breakdown:
Section |  min time  |  avg time  |  max time  |%varavg| %total
---------------------------------------------------------------
Pair    | 0.011376   | 0.012523   | 0.014112   |   0.4 |  0.32
Neigh   | 0.1301     | 0.24838    | 0.74168    |  24.2 |  6.44
Comm    | 1.6244     | 2.1282     | 2.3839     |   8.5 | 55.18
Output  | 0.00046629 | 0.031274   | 0.032458   |   2.5 |  0.81
Modify  | 1.2064     | 1.432      | 1.6417     |   6.7 | 37.13
Other   |            | 0.00415    |            |       |  0.11

Nlocal:      1.024e+06 ave 1.02496e+06 max  1.0231e+06 min
Histogram: 7 22 85 182 258 254 152 46 14 4
Nghost:         180644 ave      181096 max      180115 min
Histogram: 7 20 52 127 208 238 209 100 51 12
Neighs:              0 ave           0 max           0 min
Histogram: 1024 0 0 0 0 0 0 0 0 0
FullNghs:  7.67714e+07 ave 7.68961e+07 max 7.66522e+07 min
Histogram: 4 26 85 172 246 253 161 52 18 7

Total # of neighbors = 7.8613942e+10
Ave neighs/atom = 74.972097
Neighbor list builds = 50
Dangerous builds not checked
Total wall time: 0:00:05
