LAMMPS (4 Feb 2025 - Development - patch_4Feb2025-76-gf0bc9ddcc9-modified)
KOKKOS mode with Kokkos version 4.5.1 is enabled (../kokkos.cpp:72)
  will use up to 1 GPU(s) per node
package kokkos
package kokkos neigh full neigh/qeq full newton off comm device pair/only off neigh/transpose on
# 3d Lennard-Jones melt

units		lj
atom_style	atomic

lattice		fcc 0.8442
Lattice spacing in x,y,z = 1.6795962 1.6795962 1.6795962
region		box block 0 $x 0 $y 0 $z
region		box block 0 40 0 $y 0 $z
region		box block 0 40 0 40 0 $z
region		box block 0 40 0 40 0 80
create_box	1 box
Created orthogonal box = (0 0 0) to (67.183848 67.183848 134.3677)
  1 by 1 by 2 MPI processor grid
create_atoms	1 box
Created 512000 atoms
  using lattice units in orthogonal box = (0 0 0) to (67.183848 67.183848 134.3677)
  create_atoms CPU = 0.062 seconds
mass		1 1.0

velocity	all create 1.44 87287 loop geom

pair_style	lj/cut 2.5
pair_coeff	1 1 1.0 1.0 2.5

neighbor	0.3 bin
neigh_modify	delay 0 every 20 check no

fix		1 all nve
thermo          10000

run		$t
run		1000
Generated 0 of 0 mixed pair_coeff terms from geometric mixing rule
Neighbor list info ...
  update: every = 20 steps, delay = 0 steps, check = no
  max neighbors/atom: 2000, page size: 100000
  master list distance cutoff = 2.8
  ghost atom cutoff = 2.8
  binsize = 2.8, bins = 24 24 48
  1 neighbor lists, perpetual/occasional/extra = 1 0 0
  (1) pair lj/cut/kk, perpetual
      attributes: full, newton off, kokkos_device
      pair build: full/bin/kk/device
      stencil: full/bin/3d
      bin: kk/device
Per MPI rank memory allocation (min/avg/max) = 45.28 | 45.28 | 45.28 Mbytes
   Step          Temp          E_pair         E_mol          TotEng         Press     
         0   1.44          -6.7733681      0             -4.6133723     -5.0196716    
      1000   0.7038891     -5.6763581      0             -4.6205266      0.70117824   
Loop time of 0.64433 on 2 procs for 1000 steps with 512000 atoms

Performance: 670463.617 tau/day, 1551.999 timesteps/s, 794.624 Matom-step/s
153.3% CPU use with 2 MPI tasks x 1 OpenMP threads

MPI task timing breakdown:
Section |  min time  |  avg time  |  max time  |%varavg| %total
---------------------------------------------------------------
Pair    | 0.0095684  | 0.0095955  | 0.0096225  |   0.0 |  1.49
Neigh   | 0.063229   | 0.075936   | 0.088643   |   4.6 | 11.79
Comm    | 0.20078    | 0.21585    | 0.23091    |   3.2 | 33.50
Output  | 0.00015395 | 0.00015725 | 0.00016055 |   0.0 |  0.02
Modify  | 0.33896    | 0.34129    | 0.34361    |   0.4 | 52.97
Other   |            | 0.001508   |            |       |  0.23

Nlocal:         256000 ave      256048 max      255952 min
Histogram: 1 0 0 0 0 0 0 0 0 1
Nghost:          69834 ave       69850 max       69818 min
Histogram: 1 0 0 0 0 0 0 0 0 1
Neighs:              0 ave           0 max           0 min
Histogram: 2 0 0 0 0 0 0 0 0 0
FullNghs:   1.9193e+07 ave  1.9201e+07 max  1.9185e+07 min
Histogram: 1 0 0 0 0 0 0 0 0 1

Total # of neighbors = 38386032
Ave neighs/atom = 74.972719
Neighbor list builds = 50
Dangerous builds not checked
Total wall time: 0:00:01
