LAMMPS (4 Feb 2025 - Development - patch_4Feb2025-76-gf0bc9ddcc9-modified)
KOKKOS mode with Kokkos version 4.5.1 is enabled (../kokkos.cpp:72)
  will use up to 1 GPU(s) per node
package kokkos
package kokkos neigh half neigh/qeq full newton on comm device pair/only off neigh/transpose on
# Demonstrate SNAP W potential

# Initialize simulation

variable nsteps index 100
variable nrep equal 10
variable a equal 3.1803
units           metal

boundary        p p p

lattice         bcc $a
lattice         bcc 3.1803
Lattice spacing in x,y,z = 3.1803 3.1803 3.1803
region          box block 0 ${x} 0 ${y} 0 ${z}
region          box block 0 10 0 ${y} 0 ${z}
region          box block 0 10 0 20 0 ${z}
region          box block 0 10 0 20 0 20
create_box      1 box
Created orthogonal box = (0 0 0) to (31.803 63.606 63.606)
  1 by 2 by 2 MPI processor grid
create_atoms    1 box
Created 8000 atoms
  using lattice units in orthogonal box = (0 0 0) to (31.803 63.606 63.606)
  create_atoms CPU = 0.005 seconds

mass 1 183.84

# choose potential

include W_2940_2017_2.snap
# DATE: 2017-02-20 UNITS: metal CONTRIBUTOR: Mitchell Wood mitwood@sandia.gov CITATION: Wood, M. A. and Thompson, A. P. "Quantum-Accurate Molecular Dynamics Potential for Tungsten" arXiv:1702.07042 [physics.comp-ph]
#
# Definition of SNAP+ZBL potential.
variable zblcutinner equal 4
variable zblcutouter equal 4.8
variable zblz equal 74

# Specify hybrid with SNAP and ZBL

pair_style hybrid/overlay zbl ${zblcutinner} ${zblcutouter} snap
pair_style hybrid/overlay zbl 4 ${zblcutouter} snap
pair_style hybrid/overlay zbl 4 4.8 snap
pair_coeff 1 1 zbl ${zblz} ${zblz}
pair_coeff 1 1 zbl 74 ${zblz}
pair_coeff 1 1 zbl 74 74
pair_coeff * * snap W_2940_2017_2.snapcoeff W_2940_2017_2.snapparam W
Reading potential file W_2940_2017_2.snapcoeff with DATE: 2017-02-20
SNAP Element = W, Radius 0.5, Weight 1
Reading potential file W_2940_2017_2.snapparam with DATE: 2017-02-20
SNAP keyword rcutfac 4.73442
SNAP keyword twojmax 8
SNAP keyword rfac0 0.99363
SNAP keyword rmin0 0
SNAP keyword bzeroflag 0
SNAP keyword quadraticflag 0
#pair_coeff * * snap W_2J14.snapcoeff W_2J14.snapparam W # 2J14

#Nomenclature on the snap files are Element_DakotaID_Year_Month

# Setup output

thermo          1000
thermo_modify norm yes

# Set up NVE run

timestep 0.5e-3
neighbor 1.0 bin
neigh_modify every 1 delay 0 check yes

# Run MD

velocity all create 800.0 4928459
fix 1 all nve

run             ${t}
run             200
Neighbor list info ...
  update: every = 1 steps, delay = 0 steps, check = yes
  max neighbors/atom: 2000, page size: 100000
  master list distance cutoff = 5.8
  ghost atom cutoff = 5.8
  binsize = 5.8, bins = 6 11 11
  2 neighbor lists, perpetual/occasional/extra = 2 0 0
  (1) pair zbl, perpetual, half/full from (2)
      attributes: half, newton on, kokkos_device, cut 5.8
      pair build: halffull/newton/kk/device
      stencil: none
      bin: none
  (2) pair snap, perpetual
      attributes: full, newton on, kokkos_device
      pair build: full/bin/kk/device
      stencil: full/bin/3d
      bin: kk/device
Per MPI rank memory allocation (min/avg/max) = 4.981 | 4.981 | 4.981 Mbytes
   Step          Temp          E_pair         E_mol          TotEng         Press     
         0   800           -11.028325      0             -10.924929      7321.9535    
       200   564.03362     -10.997826      0             -10.924928      14408.925    
Loop time of 0.358869 on 4 procs for 200 steps with 8000 atoms

Performance: 24.076 ns/day, 0.997 hours/ns, 557.307 timesteps/s, 4.458 Matom-step/s
188.7% CPU use with 4 MPI tasks x 1 OpenMP threads

MPI task timing breakdown:
Section |  min time  |  avg time  |  max time  |%varavg| %total
---------------------------------------------------------------
Pair    | 0.26412    | 0.26907    | 0.27137    |   0.6 | 74.98
Neigh   | 0          | 0          | 0          |   0.0 |  0.00
Comm    | 0.069918   | 0.072346   | 0.07724    |   1.1 | 20.16
Output  | 8.3461e-05 | 9.6109e-05 | 0.00010603 |   0.0 |  0.03
Modify  | 0.0050334  | 0.0052007  | 0.0052925  |   0.1 |  1.45
Other   |            | 0.01216    |            |       |  3.39

Nlocal:           2000 ave        2000 max        2000 min
Histogram: 4 0 0 0 0 0 0 0 0 0
Nghost:           2941 ave        2941 max        2941 min
Histogram: 4 0 0 0 0 0 0 0 0 0
Neighs:          58000 ave       58000 max       58000 min
Histogram: 4 0 0 0 0 0 0 0 0 0
FullNghs:       116000 ave      116000 max      116000 min
Histogram: 4 0 0 0 0 0 0 0 0 0

Total # of neighbors = 464000
Ave neighs/atom = 58
Neighbor list builds = 0
Dangerous builds = 0

Total wall time: 0:00:00
