LAMMPS (4 Feb 2025 - Development - patch_4Feb2025-76-gf0bc9ddcc9-modified)
KOKKOS mode with Kokkos version 4.5.1 is enabled (../kokkos.cpp:72)
  will use up to 1 GPU(s) per node
package kokkos
package kokkos neigh half neigh/qeq full newton on comm device pair/only off neigh/transpose on
# Demonstrate SNAP W potential

# Initialize simulation

variable nsteps index 100
variable nrep equal 10
variable a equal 3.1803
units           metal

boundary        p p p

lattice         bcc $a
lattice         bcc 3.1803
Lattice spacing in x,y,z = 3.1803 3.1803 3.1803
region          box block 0 ${x} 0 ${y} 0 ${z}
region          box block 0 160 0 ${y} 0 ${z}
region          box block 0 160 0 160 0 ${z}
region          box block 0 160 0 160 0 160
create_box      1 box
Created orthogonal box = (0 0 0) to (508.848 508.848 508.848)
  8 by 8 by 8 MPI processor grid
create_atoms    1 box
Created 8192000 atoms
  using lattice units in orthogonal box = (0 0 0) to (508.848 508.848 508.848)
  create_atoms CPU = 0.008 seconds

mass 1 183.84

# choose potential

include W_2940_2017_2.snap
# DATE: 2017-02-20 UNITS: metal CONTRIBUTOR: Mitchell Wood mitwood@sandia.gov CITATION: Wood, M. A. and Thompson, A. P. "Quantum-Accurate Molecular Dynamics Potential for Tungsten" arXiv:1702.07042 [physics.comp-ph]
#
# Definition of SNAP+ZBL potential.
variable zblcutinner equal 4
variable zblcutouter equal 4.8
variable zblz equal 74

# Specify hybrid with SNAP and ZBL

pair_style hybrid/overlay zbl ${zblcutinner} ${zblcutouter} snap
pair_style hybrid/overlay zbl 4 ${zblcutouter} snap
pair_style hybrid/overlay zbl 4 4.8 snap
pair_coeff 1 1 zbl ${zblz} ${zblz}
pair_coeff 1 1 zbl 74 ${zblz}
pair_coeff 1 1 zbl 74 74
pair_coeff * * snap W_2940_2017_2.snapcoeff W_2940_2017_2.snapparam W
Reading potential file W_2940_2017_2.snapcoeff with DATE: 2017-02-20
SNAP Element = W, Radius 0.5, Weight 1
Reading potential file W_2940_2017_2.snapparam with DATE: 2017-02-20
SNAP keyword rcutfac 4.73442
SNAP keyword twojmax 8
SNAP keyword rfac0 0.99363
SNAP keyword rmin0 0
SNAP keyword bzeroflag 0
SNAP keyword quadraticflag 0
#pair_coeff * * snap W_2J14.snapcoeff W_2J14.snapparam W # 2J14

#Nomenclature on the snap files are Element_DakotaID_Year_Month

# Setup output

thermo          1000
thermo_modify norm yes

# Set up NVE run

timestep 0.5e-3
neighbor 1.0 bin
neigh_modify every 1 delay 0 check yes

# Run MD

velocity all create 800.0 4928459
fix 1 all nve

run             ${t}
run             200
Neighbor list info ...
  update: every = 1 steps, delay = 0 steps, check = yes
  max neighbors/atom: 2000, page size: 100000
  master list distance cutoff = 5.8
  ghost atom cutoff = 5.8
  binsize = 5.8, bins = 88 88 88
  2 neighbor lists, perpetual/occasional/extra = 2 0 0
  (1) pair zbl, perpetual, half/full from (2)
      attributes: half, newton on, kokkos_device, cut 5.8
      pair build: halffull/newton/kk/device
      stencil: none
      bin: none
  (2) pair snap, perpetual
      attributes: full, newton on, kokkos_device
      pair build: full/bin/kk/device
      stencil: full/bin/3d
      bin: kk/device
Per MPI rank memory allocation (min/avg/max) = 13.83 | 13.83 | 13.83 Mbytes
   Step          Temp          E_pair         E_mol          TotEng         Press     
         0   800           -11.028325      0             -10.924917      7322.8111    
       200   561.56425     -10.997503      0             -10.924915      14482.817    
Loop time of 1.60232 on 512 procs for 200 steps with 8192000 atoms

Performance: 5.392 ns/day, 4.451 hours/ns, 124.819 timesteps/s, 1.023 Gatom-step/s
127.8% CPU use with 512 MPI tasks x 1 OpenMP threads

MPI task timing breakdown:
Section |  min time  |  avg time  |  max time  |%varavg| %total
---------------------------------------------------------------
Pair    | 1.4155     | 1.4431     | 1.482      |   0.9 | 90.07
Neigh   | 0          | 0          | 0          |   0.0 |  0.00
Comm    | 0.089411   | 0.12407    | 0.15615    |   3.2 |  7.74
Output  | 0.00026069 | 0.00042892 | 0.00053365 |   0.0 |  0.03
Modify  | 0.0034604  | 0.003779   | 0.0053914  |   0.2 |  0.24
Other   |            | 0.0309     |            |       |  1.93

Nlocal:          16000 ave       16000 max       16000 min
Histogram: 512 0 0 0 0 0 0 0 0 0
Nghost:           9991 ave        9991 max        9991 min
Histogram: 512 0 0 0 0 0 0 0 0 0
Neighs:         464000 ave      464000 max      464000 min
Histogram: 512 0 0 0 0 0 0 0 0 0
FullNghs:       928000 ave      928000 max      928000 min
Histogram: 512 0 0 0 0 0 0 0 0 0

Total # of neighbors = 4.75136e+08
Ave neighs/atom = 58
Neighbor list builds = 0
Dangerous builds = 0

Total wall time: 0:00:02
