LAMMPS (4 Feb 2025 - Development - patch_4Feb2025-76-gf0bc9ddcc9-modified)
KOKKOS mode with Kokkos version 4.5.1 is enabled (../kokkos.cpp:72)
  will use up to 1 GPU(s) per node
package kokkos
package kokkos neigh half neigh/qeq full newton on comm device pair/only off neigh/transpose on
# Demonstrate SNAP W potential

# Initialize simulation

variable nsteps index 100
variable nrep equal 10
variable a equal 3.1803
units           metal

boundary        p p p

lattice         bcc $a
lattice         bcc 3.1803
Lattice spacing in x,y,z = 3.1803 3.1803 3.1803
region          box block 0 ${x} 0 ${y} 0 ${z}
region          box block 0 80 0 ${y} 0 ${z}
region          box block 0 80 0 160 0 ${z}
region          box block 0 80 0 160 0 160
create_box      1 box
Created orthogonal box = (0 0 0) to (254.424 508.848 508.848)
  8 by 16 by 16 MPI processor grid
create_atoms    1 box
Created 4096000 atoms
  using lattice units in orthogonal box = (0 0 0) to (254.424 508.848 508.848)
  create_atoms CPU = 0.006 seconds

mass 1 183.84

# choose potential

include W_2940_2017_2.snap
# DATE: 2017-02-20 UNITS: metal CONTRIBUTOR: Mitchell Wood mitwood@sandia.gov CITATION: Wood, M. A. and Thompson, A. P. "Quantum-Accurate Molecular Dynamics Potential for Tungsten" arXiv:1702.07042 [physics.comp-ph]
#
# Definition of SNAP+ZBL potential.
variable zblcutinner equal 4
variable zblcutouter equal 4.8
variable zblz equal 74

# Specify hybrid with SNAP and ZBL

pair_style hybrid/overlay zbl ${zblcutinner} ${zblcutouter} snap
pair_style hybrid/overlay zbl 4 ${zblcutouter} snap
pair_style hybrid/overlay zbl 4 4.8 snap
pair_coeff 1 1 zbl ${zblz} ${zblz}
pair_coeff 1 1 zbl 74 ${zblz}
pair_coeff 1 1 zbl 74 74
pair_coeff * * snap W_2940_2017_2.snapcoeff W_2940_2017_2.snapparam W
Reading potential file W_2940_2017_2.snapcoeff with DATE: 2017-02-20
SNAP Element = W, Radius 0.5, Weight 1
Reading potential file W_2940_2017_2.snapparam with DATE: 2017-02-20
SNAP keyword rcutfac 4.73442
SNAP keyword twojmax 8
SNAP keyword rfac0 0.99363
SNAP keyword rmin0 0
SNAP keyword bzeroflag 0
SNAP keyword quadraticflag 0
#pair_coeff * * snap W_2J14.snapcoeff W_2J14.snapparam W # 2J14

#Nomenclature on the snap files are Element_DakotaID_Year_Month

# Setup output

thermo          1000
thermo_modify norm yes

# Set up NVE run

timestep 0.5e-3
neighbor 1.0 bin
neigh_modify every 1 delay 0 check yes

# Run MD

velocity all create 800.0 4928459
fix 1 all nve

run             ${t}
run             200
Neighbor list info ...
  update: every = 1 steps, delay = 0 steps, check = yes
  max neighbors/atom: 2000, page size: 100000
  master list distance cutoff = 5.8
  ghost atom cutoff = 5.8
  binsize = 5.8, bins = 44 88 88
  2 neighbor lists, perpetual/occasional/extra = 2 0 0
  (1) pair zbl, perpetual, half/full from (2)
      attributes: half, newton on, kokkos_device, cut 5.8
      pair build: halffull/newton/kk/device
      stencil: none
      bin: none
  (2) pair snap, perpetual
      attributes: full, newton on, kokkos_device
      pair build: full/bin/kk/device
      stencil: full/bin/3d
      bin: kk/device
Per MPI rank memory allocation (min/avg/max) = 4.989 | 4.989 | 4.989 Mbytes
   Step          Temp          E_pair         E_mol          TotEng         Press     
         0   800           -11.028325      0             -10.924917      7322.8102    
       200   561.47905     -10.997492      0             -10.924915      14487.934    
Loop time of 0.405895 on 2048 procs for 200 steps with 4096000 atoms

Performance: 21.286 ns/day, 1.127 hours/ns, 492.738 timesteps/s, 2.018 Gatom-step/s
189.1% CPU use with 2048 MPI tasks x 1 OpenMP threads

MPI task timing breakdown:
Section |  min time  |  avg time  |  max time  |%varavg| %total
---------------------------------------------------------------
Pair    | 0.26261    | 0.27197    | 0.29057    |   0.7 | 67.00
Neigh   | 0          | 0          | 0          |   0.0 |  0.00
Comm    | 0.073355   | 0.083355   | 0.10316    |   1.6 | 20.54
Output  | 0.00034144 | 0.00047082 | 0.00051723 |   0.0 |  0.12
Modify  | 0.0034296  | 0.0037529  | 0.0054547  |   0.2 |  0.92
Other   |            | 0.04635    |            |       | 11.42

Nlocal:           2000 ave        2000 max        2000 min
Histogram: 2048 0 0 0 0 0 0 0 0 0
Nghost:           2941 ave        2941 max        2941 min
Histogram: 2048 0 0 0 0 0 0 0 0 0
Neighs:          58000 ave       58000 max       58000 min
Histogram: 2048 0 0 0 0 0 0 0 0 0
FullNghs:       116000 ave      116000 max      116000 min
Histogram: 2048 0 0 0 0 0 0 0 0 0

Total # of neighbors = 2.37568e+08
Ave neighs/atom = 58
Neighbor list builds = 0
Dangerous builds = 0

Total wall time: 0:00:01
