LAMMPS (4 Feb 2025 - Development - patch_4Feb2025-76-gf0bc9ddcc9-modified)
KOKKOS mode with Kokkos version 4.5.1 is enabled (../kokkos.cpp:72)
  will use up to 1 GPU(s) per node
package kokkos
package kokkos neigh half neigh/qeq full newton on comm device pair/only off neigh/transpose on
# Demonstrate SNAP W potential

# Initialize simulation

variable nsteps index 100
variable nrep equal 10
variable a equal 3.1803
units           metal

boundary        p p p

lattice         bcc $a
lattice         bcc 3.1803
Lattice spacing in x,y,z = 3.1803 3.1803 3.1803
region          box block 0 ${x} 0 ${y} 0 ${z}
region          box block 0 40 0 ${y} 0 ${z}
region          box block 0 40 0 40 0 ${z}
region          box block 0 40 0 40 0 80
create_box      1 box
Created orthogonal box = (0 0 0) to (127.212 127.212 254.424)
  2 by 4 by 8 MPI processor grid
create_atoms    1 box
Created 256000 atoms
  using lattice units in orthogonal box = (0 0 0) to (127.212 127.212 254.424)
  create_atoms CPU = 0.006 seconds

mass 1 183.84

# choose potential

include W_2940_2017_2.snap
# DATE: 2017-02-20 UNITS: metal CONTRIBUTOR: Mitchell Wood mitwood@sandia.gov CITATION: Wood, M. A. and Thompson, A. P. "Quantum-Accurate Molecular Dynamics Potential for Tungsten" arXiv:1702.07042 [physics.comp-ph]
#
# Definition of SNAP+ZBL potential.
variable zblcutinner equal 4
variable zblcutouter equal 4.8
variable zblz equal 74

# Specify hybrid with SNAP and ZBL

pair_style hybrid/overlay zbl ${zblcutinner} ${zblcutouter} snap
pair_style hybrid/overlay zbl 4 ${zblcutouter} snap
pair_style hybrid/overlay zbl 4 4.8 snap
pair_coeff 1 1 zbl ${zblz} ${zblz}
pair_coeff 1 1 zbl 74 ${zblz}
pair_coeff 1 1 zbl 74 74
pair_coeff * * snap W_2940_2017_2.snapcoeff W_2940_2017_2.snapparam W
Reading potential file W_2940_2017_2.snapcoeff with DATE: 2017-02-20
SNAP Element = W, Radius 0.5, Weight 1
Reading potential file W_2940_2017_2.snapparam with DATE: 2017-02-20
SNAP keyword rcutfac 4.73442
SNAP keyword twojmax 8
SNAP keyword rfac0 0.99363
SNAP keyword rmin0 0
SNAP keyword bzeroflag 0
SNAP keyword quadraticflag 0
#pair_coeff * * snap W_2J14.snapcoeff W_2J14.snapparam W # 2J14

#Nomenclature on the snap files are Element_DakotaID_Year_Month

# Setup output

thermo          1000
thermo_modify norm yes

# Set up NVE run

timestep 0.5e-3
neighbor 1.0 bin
neigh_modify every 1 delay 0 check yes

# Run MD

velocity all create 800.0 4928459
fix 1 all nve

run             ${t}
run             200
Neighbor list info ...
  update: every = 1 steps, delay = 0 steps, check = yes
  max neighbors/atom: 2000, page size: 100000
  master list distance cutoff = 5.8
  ghost atom cutoff = 5.8
  binsize = 5.8, bins = 22 22 44
  2 neighbor lists, perpetual/occasional/extra = 2 0 0
  (1) pair zbl, perpetual, half/full from (2)
      attributes: half, newton on, kokkos_device, cut 5.8
      pair build: halffull/newton/kk/device
      stencil: none
      bin: none
  (2) pair snap, perpetual
      attributes: full, newton on, kokkos_device
      pair build: full/bin/kk/device
      stencil: full/bin/3d
      bin: kk/device
Per MPI rank memory allocation (min/avg/max) = 5.829 | 5.829 | 5.829 Mbytes
   Step          Temp          E_pair         E_mol          TotEng         Press     
         0   800           -11.028325      0             -10.924917      7322.7851    
       200   561.85806     -10.997541      0             -10.924915      14473.481    
Loop time of 0.595622 on 64 procs for 200 steps with 256000 atoms

Performance: 14.506 ns/day, 1.655 hours/ns, 335.783 timesteps/s, 85.961 Matom-step/s
163.4% CPU use with 64 MPI tasks x 1 OpenMP threads

MPI task timing breakdown:
Section |  min time  |  avg time  |  max time  |%varavg| %total
---------------------------------------------------------------
Pair    | 0.44865    | 0.46557    | 0.48528    |   1.2 | 78.17
Neigh   | 0          | 0          | 0          |   0.0 |  0.00
Comm    | 0.083797   | 0.10014    | 0.11607    |   2.6 | 16.81
Output  | 0.00018545 | 0.00024932 | 0.00030036 |   0.0 |  0.04
Modify  | 0.0034435  | 0.0037036  | 0.0046733  |   0.3 |  0.62
Other   |            | 0.02595    |            |       |  4.36

Nlocal:           4000 ave        4000 max        4000 min
Histogram: 64 0 0 0 0 0 0 0 0 0
Nghost:           4591 ave        4591 max        4591 min
Histogram: 64 0 0 0 0 0 0 0 0 0
Neighs:         116000 ave      116000 max      116000 min
Histogram: 64 0 0 0 0 0 0 0 0 0
FullNghs:       232000 ave      232000 max      232000 min
Histogram: 64 0 0 0 0 0 0 0 0 0

Total # of neighbors = 14848000
Ave neighs/atom = 58
Neighbor list builds = 0
Dangerous builds = 0

Total wall time: 0:00:01
