LAMMPS (4 Feb 2025 - Development)
KOKKOS mode with Kokkos version 4.5.1 is enabled (../kokkos.cpp:72)
  will use up to 1 GPU(s) per node
package kokkos
package kokkos neigh half neigh/qeq full newton on comm device pair/only off
# Pure HNS crystal, ReaxFF tests for benchmarking LAMMPS
# See README for more info

units		real
atom_style	charge
atom_modify sort  100 0.0
dimension       3
boundary        p p p
box               tilt large

The 'box' command has been removed and will be ignored


read_data  	data.hns
Reading data file ...
  triclinic box = (0 0 0) to (22.326 11.1412 13.778966) with tilt (0 -5.02603 0)
  1 by 1 by 1 MPI processor grid
  reading atoms ...
  304 atoms
  reading velocities ...
  304 velocities
  read_data CPU = 0.009 seconds
replicate         $x $y $z bbox
replicate         2 $y $z bbox
replicate         2 2 $z bbox
replicate         2 2 3 bbox
Replication is creating a 2x2x3 = 12 times larger system...
  triclinic box = (0 0 0) to (44.652 22.2824 41.336898) with tilt (0 -15.07809 0)
  1 by 1 by 1 MPI processor grid
  bounding box image = (0 -1 -1) to (0 1 1)
  bounding box extra memory = 0.03 MB
  average # of replicas added to proc = 12.00 out of 12 (100.00%)
  3648 atoms
  replicate CPU = 0.003 seconds

pair_style        reaxff NULL
pair_coeff	* * ffield.reax.hns C H O N

compute   	reax all pair reaxff

neighbor	1.0 bin
neigh_modify      every 20 delay 0 check no

timestep        0.1

thermo_style      custom step temp pe press evdwl ecoul vol
thermo_modify	norm yes
thermo	  	100

velocity          all create 300.0 41279 loop geom

fix		1 all nve
fix             2 all qeq/reaxff 1 0.0 10.0 1e-6 reaxff

run  		$t
run  		200
Neighbor list info ...
  update: every = 20 steps, delay = 0 steps, check = no
  max neighbors/atom: 2000, page size: 100000
  master list distance cutoff = 11
  ghost atom cutoff = 11
  binsize = 11, bins = 6 3 4
  2 neighbor lists, perpetual/occasional/extra = 2 0 0
  (1) pair reaxff/kk, perpetual
      attributes: half, newton off, ghost, kokkos_device
      pair build: half/bin/newtoff/ghost/kk/device
      stencil: full/ghost/bin/3d
      bin: kk/device
  (2) fix qeq/reaxff/kk, perpetual
      attributes: full, newton off, kokkos_device
      pair build: full/bin/kk/device
      stencil: full/bin/3d
      bin: kk/device
Per MPI rank memory allocation (min/avg/max) = 85.32 | 85.32 | 85.32 Mbytes
   Step          Temp          PotEng         Press          E_vdwl         E_coul         Volume    
         0   300           -113.27833      438.02043     -111.57687     -1.7014647      41128.301    
       100   303.51682     -113.28822      10936.872     -111.59056     -1.6976653      41128.301    
       200   293.94925     -113.25946      10763.467     -111.56067     -1.6987928      41128.301    
Loop time of 1.59152 on 1 procs for 200 steps with 3648 atoms

Performance: 1.086 ns/day, 22.104 hours/ns, 125.666 timesteps/s, 458.430 katom-step/s
99.3% CPU use with 1 MPI tasks x 1 OpenMP threads

MPI task timing breakdown:
Section |  min time  |  avg time  |  max time  |%varavg| %total
---------------------------------------------------------------
Pair    | 0.68231    | 0.68231    | 0.68231    |   0.0 | 42.87
Neigh   | 0.026614   | 0.026614   | 0.026614   |   0.0 |  1.67
Comm    | 0.023051   | 0.023051   | 0.023051   |   0.0 |  1.45
Output  | 0.00010838 | 0.00010838 | 0.00010838 |   0.0 |  0.01
Modify  | 0.85782    | 0.85782    | 0.85782    |   0.0 | 53.90
Other   |            | 0.001611   |            |       |  0.10

Nlocal:           3648 ave        3648 max        3648 min
Histogram: 1 0 0 0 0 0 0 0 0 0
Nghost:          13152 ave       13152 max       13152 min
Histogram: 1 0 0 0 0 0 0 0 0 0
Neighs:    1.20307e+06 ave 1.20307e+06 max 1.20307e+06 min
Histogram: 1 0 0 0 0 0 0 0 0 0
FullNghs:  1.79119e+06 ave 1.79119e+06 max 1.79119e+06 min
Histogram: 1 0 0 0 0 0 0 0 0 0

Total # of neighbors = 1791192
Ave neighs/atom = 491.00658
Neighbor list builds = 10
Dangerous builds not checked
Total wall time: 0:00:01
