LAMMPS (4 Feb 2025 - Development)
KOKKOS mode with Kokkos version 4.5.1 is enabled (../kokkos.cpp:72)
  will use up to 1 GPU(s) per node
package kokkos
package kokkos neigh half neigh/qeq full newton on comm device pair/only off
# 3d Lennard-Jones melt

units		lj
atom_style	atomic

lattice		fcc 0.8442
Lattice spacing in x,y,z = 1.6795962 1.6795962 1.6795962
region		box block 0 $x 0 $y 0 $z
region		box block 0 80 0 $y 0 $z
region		box block 0 80 0 80 0 $z
region		box block 0 80 0 80 0 160
create_box	1 box
Created orthogonal box = (0 0 0) to (134.3677 134.3677 268.73539)
  1 by 1 by 1 MPI processor grid
create_atoms	1 box
Created 4096000 atoms
  using lattice units in orthogonal box = (0 0 0) to (134.3677 134.3677 268.73539)
  create_atoms CPU = 0.282 seconds
mass		1 1.0

velocity	all create 1.44 87287 loop geom

pair_style	lj/cut 2.5
pair_coeff	1 1 1.0 1.0 2.5

neighbor	0.3 bin
neigh_modify	delay 0 every 20 check no

fix		1 all nve
thermo          10000

run		$t
run		1000
Generated 0 of 0 mixed pair_coeff terms from geometric mixing rule
Neighbor list info ...
  update: every = 20 steps, delay = 0 steps, check = no
  max neighbors/atom: 2000, page size: 100000
  master list distance cutoff = 2.8
  ghost atom cutoff = 2.8
  binsize = 2.8, bins = 48 48 96
  1 neighbor lists, perpetual/occasional/extra = 1 0 0
  (1) pair lj/cut/kk, perpetual
      attributes: half, newton on, kokkos_device
      pair build: half/bin/newton/kk/device
      stencil: half/bin/3d
      bin: kk/device
Per MPI rank memory allocation (min/avg/max) = 568.9 | 568.9 | 568.9 Mbytes
   Step          Temp          E_pair         E_mol          TotEng         Press     
         0   1.44          -6.7733681      0             -4.6133686     -5.0196696    
      1000   0.70377618    -5.6761254      0             -4.6204614      0.70407906   
Loop time of 5.38395 on 1 procs for 1000 steps with 4096000 atoms

Performance: 80238.414 tau/day, 185.737 timesteps/s, 760.779 Matom-step/s
98.1% CPU use with 1 MPI tasks x 1 OpenMP threads

MPI task timing breakdown:
Section |  min time  |  avg time  |  max time  |%varavg| %total
---------------------------------------------------------------
Pair    | 0.25668    | 0.25668    | 0.25668    |   0.0 |  4.77
Neigh   | 0.35091    | 0.35091    | 0.35091    |   0.0 |  6.52
Comm    | 4.6799     | 4.6799     | 4.6799     |   0.0 | 86.92
Output  | 0.00017689 | 0.00017689 | 0.00017689 |   0.0 |  0.00
Modify  | 0.0086541  | 0.0086541  | 0.0086541  |   0.0 |  0.16
Other   |            | 0.08761    |            |       |  1.63

Nlocal:      4.096e+06 ave   4.096e+06 max   4.096e+06 min
Histogram: 1 0 0 0 0 0 0 0 0 0
Nghost:         442826 ave      442826 max      442826 min
Histogram: 1 0 0 0 0 0 0 0 0 0
Neighs:    1.53541e+08 ave 1.53541e+08 max 1.53541e+08 min
Histogram: 1 0 0 0 0 0 0 0 0 0

Total # of neighbors = 1.5354136e+08
Ave neighs/atom = 37.485685
Neighbor list builds = 50
Dangerous builds not checked
Total wall time: 0:00:09
