LAMMPS (4 Feb 2025 - Development)
KOKKOS mode with Kokkos version 4.5.1 is enabled (../kokkos.cpp:72)
  will use up to 1 GPU(s) per node
package kokkos
package kokkos neigh half neigh/qeq full newton on comm device pair/only off
# 3d Lennard-Jones melt

units		lj
atom_style	atomic

lattice		fcc 0.8442
Lattice spacing in x,y,z = 1.6795962 1.6795962 1.6795962
region		box block 0 $x 0 $y 0 $z
region		box block 0 5 0 $y 0 $z
region		box block 0 5 0 5 0 $z
region		box block 0 5 0 5 0 10
create_box	1 box
Created orthogonal box = (0 0 0) to (8.397981 8.397981 16.795962)
  1 by 1 by 1 MPI processor grid
create_atoms	1 box
Created 1000 atoms
  using lattice units in orthogonal box = (0 0 0) to (8.397981 8.397981 16.795962)
  create_atoms CPU = 0.002 seconds
mass		1 1.0

velocity	all create 1.44 87287 loop geom

pair_style	lj/cut 2.5
pair_coeff	1 1 1.0 1.0 2.5

neighbor	0.3 bin
neigh_modify	delay 0 every 20 check no

fix		1 all nve
thermo          10000

run		$t
run		1000
Generated 0 of 0 mixed pair_coeff terms from geometric mixing rule
Neighbor list info ...
  update: every = 20 steps, delay = 0 steps, check = no
  max neighbors/atom: 2000, page size: 100000
  master list distance cutoff = 2.8
  ghost atom cutoff = 2.8
  binsize = 2.8, bins = 3 3 6
  1 neighbor lists, perpetual/occasional/extra = 1 0 0
  (1) pair lj/cut/kk, perpetual
      attributes: half, newton on, kokkos_device
      pair build: half/bin/newton/kk/device
      stencil: half/bin/3d
      bin: kk/device
Per MPI rank memory allocation (min/avg/max) = 2.859 | 2.859 | 2.859 Mbytes
   Step          Temp          E_pair         E_mol          TotEng         Press     
         0   1.44          -6.7733681      0             -4.6155281     -5.0208849    
      1000   0.71116468    -5.6893511      0             -4.6236708      0.64811378   
Loop time of 0.129463 on 1 procs for 1000 steps with 1000 atoms

Performance: 3336867.555 tau/day, 7724.230 timesteps/s, 7.724 Matom-step/s
99.5% CPU use with 1 MPI tasks x 1 OpenMP threads

MPI task timing breakdown:
Section |  min time  |  avg time  |  max time  |%varavg| %total
---------------------------------------------------------------
Pair    | 0.017983   | 0.017983   | 0.017983   |   0.0 | 13.89
Neigh   | 0.0088679  | 0.0088679  | 0.0088679  |   0.0 |  6.85
Comm    | 0.091663   | 0.091663   | 0.091663   |   0.0 | 70.80
Output  | 4.3052e-05 | 4.3052e-05 | 4.3052e-05 |   0.0 |  0.03
Modify  | 0.008301   | 0.008301   | 0.008301   |   0.0 |  6.41
Other   |            | 0.002604   |            |       |  2.01

Nlocal:           1000 ave        1000 max        1000 min
Histogram: 1 0 0 0 0 0 0 0 0 0
Nghost:           2810 ave        2810 max        2810 min
Histogram: 1 0 0 0 0 0 0 0 0 0
Neighs:          37422 ave       37422 max       37422 min
Histogram: 1 0 0 0 0 0 0 0 0 0

Total # of neighbors = 37422
Ave neighs/atom = 37.422
Neighbor list builds = 50
Dangerous builds not checked
Total wall time: 0:00:00
