LAMMPS (4 Feb 2025 - Development)
KOKKOS mode with Kokkos version 4.5.1 is enabled (../kokkos.cpp:72)
  will use up to 1 GPU(s) per node
package kokkos
package kokkos neigh half neigh/qeq full newton on comm device pair/only off
# Pure HNS crystal, ReaxFF tests for benchmarking LAMMPS
# See README for more info

units		real
atom_style	charge
atom_modify sort  100 0.0
dimension       3
boundary        p p p
box               tilt large

The 'box' command has been removed and will be ignored


read_data  	data.hns
Reading data file ...
  triclinic box = (0 0 0) to (22.326 11.1412 13.778966) with tilt (0 -5.02603 0)
  1 by 1 by 1 MPI processor grid
  reading atoms ...
  304 atoms
  reading velocities ...
  304 velocities
  read_data CPU = 0.010 seconds
replicate         $x $y $z bbox
replicate         1 $y $z bbox
replicate         1 1 $z bbox
replicate         1 1 3 bbox
Replication is creating a 1x1x3 = 3 times larger system...
  triclinic box = (0 0 0) to (22.326 11.1412 41.336898) with tilt (0 -15.07809 0)
  1 by 1 by 1 MPI processor grid
  bounding box image = (0 -1 -1) to (0 1 1)
  bounding box extra memory = 0.03 MB
  average # of replicas added to proc = 3.00 out of 3 (100.00%)
  912 atoms
  replicate CPU = 0.003 seconds

pair_style        reaxff NULL
pair_coeff	* * ffield.reax.hns C H O N

compute   	reax all pair reaxff

neighbor	1.0 bin
neigh_modify      every 20 delay 0 check no

timestep        0.1

thermo_style      custom step temp pe press evdwl ecoul vol
thermo_modify	norm yes
thermo	  	100

velocity          all create 300.0 41279 loop geom

fix		1 all nve
fix             2 all qeq/reaxff 1 0.0 10.0 1e-6 reaxff

run  		$t
run  		200
Neighbor list info ...
  update: every = 20 steps, delay = 0 steps, check = no
  max neighbors/atom: 2000, page size: 100000
  master list distance cutoff = 11
  ghost atom cutoff = 11
  binsize = 11, bins = 4 2 4
  2 neighbor lists, perpetual/occasional/extra = 2 0 0
  (1) pair reaxff/kk, perpetual
      attributes: half, newton off, ghost, kokkos_device
      pair build: half/bin/newtoff/ghost/kk/device
      stencil: full/ghost/bin/3d
      bin: kk/device
  (2) fix qeq/reaxff/kk, perpetual
      attributes: full, newton off, kokkos_device
      pair build: full/bin/kk/device
      stencil: full/bin/3d
      bin: kk/device
Per MPI rank memory allocation (min/avg/max) = 68 | 68 | 68 Mbytes
   Step          Temp          PotEng         Press          E_vdwl         E_coul         Volume    
         0   300           -113.27833      435.04163     -111.57687     -1.7014647      10282.075    
       100   302.57302     -113.28587      8727.5835     -111.58783     -1.6980404      10282.075    
       200   293.49579     -113.25826      4642.3742     -111.55697     -1.7012859      10282.075    
Loop time of 1.51666 on 1 procs for 200 steps with 912 atoms

Performance: 1.139 ns/day, 21.065 hours/ns, 131.869 timesteps/s, 120.264 katom-step/s
99.7% CPU use with 1 MPI tasks x 1 OpenMP threads

MPI task timing breakdown:
Section |  min time  |  avg time  |  max time  |%varavg| %total
---------------------------------------------------------------
Pair    | 0.6516     | 0.6516     | 0.6516     |   0.0 | 42.96
Neigh   | 0.028216   | 0.028216   | 0.028216   |   0.0 |  1.86
Comm    | 0.020505   | 0.020505   | 0.020505   |   0.0 |  1.35
Output  | 0.00010216 | 0.00010216 | 0.00010216 |   0.0 |  0.01
Modify  | 0.81465    | 0.81465    | 0.81465    |   0.0 | 53.71
Other   |            | 0.001585   |            |       |  0.10

Nlocal:            912 ave         912 max         912 min
Histogram: 1 0 0 0 0 0 0 0 0 0
Nghost:           7523 ave        7523 max        7523 min
Histogram: 1 0 0 0 0 0 0 0 0 0
Neighs:         348037 ave      348037 max      348037 min
Histogram: 1 0 0 0 0 0 0 0 0 0
FullNghs:       447664 ave      447664 max      447664 min
Histogram: 1 0 0 0 0 0 0 0 0 0

Total # of neighbors = 447664
Ave neighs/atom = 490.85965
Neighbor list builds = 10
Dangerous builds not checked
Total wall time: 0:00:01
