LAMMPS (4 Feb 2025 - Development)
KOKKOS mode with Kokkos version 4.5.1 is enabled (../kokkos.cpp:72)
  will use up to 1 GPU(s) per node
package kokkos
package kokkos neigh half neigh/qeq full newton on comm device pair/only off
# Pure HNS crystal, ReaxFF tests for benchmarking LAMMPS
# See README for more info

units		real
atom_style	charge
atom_modify sort  100 0.0
dimension       3
boundary        p p p
box               tilt large

The 'box' command has been removed and will be ignored


read_data  	data.hns
Reading data file ...
  triclinic box = (0 0 0) to (22.326 11.1412 13.778966) with tilt (0 -5.02603 0)
  1 by 1 by 1 MPI processor grid
  reading atoms ...
  304 atoms
  reading velocities ...
  304 velocities
  read_data CPU = 0.009 seconds
replicate         $x $y $z bbox
replicate         2 $y $z bbox
replicate         2 4 $z bbox
replicate         2 4 3 bbox
Replication is creating a 2x4x3 = 24 times larger system...
  triclinic box = (0 0 0) to (44.652 44.5648 41.336898) with tilt (0 -15.07809 0)
  1 by 1 by 1 MPI processor grid
  bounding box image = (0 -1 -1) to (0 1 1)
  bounding box extra memory = 0.03 MB
  average # of replicas added to proc = 24.00 out of 24 (100.00%)
  7296 atoms
  replicate CPU = 0.003 seconds

pair_style        reaxff NULL
pair_coeff	* * ffield.reax.hns C H O N

compute   	reax all pair reaxff

neighbor	1.0 bin
neigh_modify      every 20 delay 0 check no

timestep        0.1

thermo_style      custom step temp pe press evdwl ecoul vol
thermo_modify	norm yes
thermo	  	100

velocity          all create 300.0 41279 loop geom

fix		1 all nve
fix             2 all qeq/reaxff 1 0.0 10.0 1e-6 reaxff

run  		$t
run  		200
Neighbor list info ...
  update: every = 20 steps, delay = 0 steps, check = no
  max neighbors/atom: 2000, page size: 100000
  master list distance cutoff = 11
  ghost atom cutoff = 11
  binsize = 11, bins = 6 5 4
  2 neighbor lists, perpetual/occasional/extra = 2 0 0
  (1) pair reaxff/kk, perpetual
      attributes: half, newton off, ghost, kokkos_device
      pair build: half/bin/newtoff/ghost/kk/device
      stencil: full/ghost/bin/3d
      bin: kk/device
  (2) fix qeq/reaxff/kk, perpetual
      attributes: full, newton off, kokkos_device
      pair build: full/bin/kk/device
      stencil: full/bin/3d
      bin: kk/device
Per MPI rank memory allocation (min/avg/max) = 138.5 | 138.5 | 138.5 Mbytes
   Step          Temp          PotEng         Press          E_vdwl         E_coul         Volume    
         0   300           -113.27833      438.51844     -111.57687     -1.7014647      82256.601    
       100   304.02818     -113.2897       8214.7466     -111.59102     -1.6986788      82256.601    
       200   295.23863     -113.26337      7270.7865     -111.56477     -1.6986032      82256.601    
Loop time of 1.64571 on 1 procs for 200 steps with 7296 atoms

Performance: 1.050 ns/day, 22.857 hours/ns, 121.528 timesteps/s, 886.666 katom-step/s
99.3% CPU use with 1 MPI tasks x 1 OpenMP threads

MPI task timing breakdown:
Section |  min time  |  avg time  |  max time  |%varavg| %total
---------------------------------------------------------------
Pair    | 0.70623    | 0.70623    | 0.70623    |   0.0 | 42.91
Neigh   | 0.028892   | 0.028892   | 0.028892   |   0.0 |  1.76
Comm    | 0.025973   | 0.025973   | 0.025973   |   0.0 |  1.58
Output  | 0.00011134 | 0.00011134 | 0.00011134 |   0.0 |  0.01
Modify  | 0.88259    | 0.88259    | 0.88259    |   0.0 | 53.63
Other   |            | 0.001912   |            |       |  0.12

Nlocal:           7296 ave        7296 max        7296 min
Histogram: 1 0 0 0 0 0 0 0 0 0
Nghost:          17978 ave       17978 max       17978 min
Histogram: 1 0 0 0 0 0 0 0 0 0
Neighs:    2.26943e+06 ave 2.26943e+06 max 2.26943e+06 min
Histogram: 1 0 0 0 0 0 0 0 0 0
FullNghs:  3.58239e+06 ave 3.58239e+06 max 3.58239e+06 min
Histogram: 1 0 0 0 0 0 0 0 0 0

Total # of neighbors = 3582388
Ave neighs/atom = 491.00713
Neighbor list builds = 10
Dangerous builds not checked
Total wall time: 0:00:01
